untitled_78a740_0                                                       
Freq      RHF                                                         3-21G*              
Number of atoms                            I                4
Info1-9                                    I   N=           9
          12          11           0           0           0         100
           6           1           2
Charge                                     I                0
Multiplicity                               I                1
Number of electrons                        I               30
Number of alpha electrons                  I               15
Number of beta electrons                   I               15
Number of basis functions                  I               39
Number of independent functions            I               39
Number of point charges in /Mol/           I                0
Number of translation vectors              I                0
Atomic numbers                             I   N=           4
          16           7           6           1
Nuclear charges                            R   N=           4
  1.60000000E+01  7.00000000E+00  6.00000000E+00  1.00000000E+00
Current cartesian coordinates              R   N=          12
  2.77761231E+00  9.39618097E-01  0.00000000E+00 -1.61738742E+00 -1.85763421E+00
  0.00000000E+00  4.65052706E-01 -1.08095223E+00  0.00000000E+00 -1.62508863E+00
  1.99915732E+00  0.00000000E+00
Force Field                                I                0
Int Atom Types                             I   N=           4
           0           0           0           0
MM charges                                 R   N=           4
  0.00000000E+00  0.00000000E+00  0.00000000E+00  0.00000000E+00
Integer atomic weights                     I   N=           4
          32          14          12           1
Real atomic weights                        R   N=           4
  3.19720718E+01  1.40030740E+01  1.20000000E+01  1.00782504E+00
Atom fragment info                         I   N=           4
           0           0           0           0
Atom residue num                           I   N=           4
           0           0           0           0
Nuclear spins                              I   N=           4
           0           2           0           1
Nuclear ZEff                               R   N=           4
 -1.36000000E+01 -4.55000000E+00 -3.60000000E+00 -1.00000000E+00
Nuclear ZNuc                               R   N=           4
  1.60000000E+01  7.00000000E+00  6.00000000E+00  1.00000000E+00
Nuclear QMom                               R   N=           4
  0.00000000E+00  2.04400000E+00  0.00000000E+00  0.00000000E+00
Nuclear GFac                               R   N=           4
  0.00000000E+00  4.03761000E-01  0.00000000E+00  2.79284600E+00
MicOpt                                     I   N=           4
          -1          -1          -1          -1
Number of contracted shells                I               13
Number of primitive shells                 I               25
Pure/Cartesian d shells                    I                1
Pure/Cartesian f shells                    I                0
Highest angular momentum                   I                2
Largest degree of contraction              I                3
Shell types                                I   N=          13
           0          -1          -1          -1           2           0
          -1          -1           0          -1          -1           0
           0
Number of primitives per shell             I   N=          13
           3           3           2           1           1           3
           2           1           3           2           1           2
           1
Shell to atom map                          I   N=          13
           1           1           1           1           1           2
           2           2           3           3           3           4
           4
Primitive exponents                        R   N=          25
  1.21062000E+03  1.82747000E+02  3.96673000E+01  5.22236000E+01  1.19629000E+01
  3.28911000E+00  1.22384000E+00  4.57303000E-01  1.42269000E-01  6.50000000E-01
  2.42766000E+02  3.64851000E+01  7.81449000E+00  5.42522000E+00  1.14915000E+00
  2.83205000E-01  1.72256000E+02  2.59109000E+01  5.53335000E+00  3.66498000E+00
  7.70545000E-01  1.95857000E-01  5.44717800E+00  8.24547240E-01  1.83191580E-01
Contraction coefficients                   R   N=          25
  6.50070819E-02  3.82039893E-01  6.76544811E-01 -1.00309940E-01  6.50876610E-02
  9.81454412E-01 -2.86088854E-01  1.22805937E+00  1.00000000E+00  1.00000000E+00
  5.98657005E-02  3.52955003E-01  7.06513006E-01 -4.13300077E-01  1.22441727E+00
  1.00000000E+00  6.17669074E-02  3.58794043E-01  7.00713084E-01 -3.95895162E-01
  1.21583436E+00  1.00000000E+00  1.56284979E-01  9.04690877E-01  1.00000000E+00
P(S=P) Contraction coefficients            R   N=          25
  0.00000000E+00  0.00000000E+00  0.00000000E+00  1.09645970E-01  4.57648876E-01
  6.04260836E-01  1.64776995E-01  8.70854972E-01  1.00000000E+00  0.00000000E+00
  0.00000000E+00  0.00000000E+00  0.00000000E+00  2.37972016E-01  8.58953059E-01
  1.00000000E+00  0.00000000E+00  0.00000000E+00  0.00000000E+00  2.36459947E-01
  8.60618806E-01  1.00000000E+00  0.00000000E+00  0.00000000E+00  0.00000000E+00
Coordinates of each shell                  R   N=          39
  2.77761231E+00  9.39618097E-01  0.00000000E+00  2.77761231E+00  9.39618097E-01
  0.00000000E+00  2.77761231E+00  9.39618097E-01  0.00000000E+00  2.77761231E+00
  9.39618097E-01  0.00000000E+00  2.77761231E+00  9.39618097E-01  0.00000000E+00
 -1.61738742E+00 -1.85763421E+00  0.00000000E+00 -1.61738742E+00 -1.85763421E+00
  0.00000000E+00 -1.61738742E+00 -1.85763421E+00  0.00000000E+00  4.65052706E-01
 -1.08095223E+00  0.00000000E+00  4.65052706E-01 -1.08095223E+00  0.00000000E+00
  4.65052706E-01 -1.08095223E+00  0.00000000E+00 -1.62508863E+00  1.99915732E+00
  0.00000000E+00 -1.62508863E+00  1.99915732E+00  0.00000000E+00
Constraint Structure                       R   N=          12
  2.77761231E+00  9.39618097E-01  0.00000000E+00 -1.61738742E+00 -1.85763421E+00
  0.00000000E+00  4.65052706E-01 -1.08095223E+00  0.00000000E+00 -1.62508863E+00
  1.99915732E+00  0.00000000E+00
Num ILSW                                   I              100
ILSW                                       I   N=         100
           0           1           0           0           2           0
           0           0           0           0           0          -1
           0           0           0           0           2           0
           0           0           0           0           1           0
           1           1           0           0           0           0
           0           0      100000           0          -1           0
           0           0           0           0           0           0
           0           0           0           1           0           0
           0           0           1           0           0           0
           0           0           4          41           0           0
           0           0           0           0           0           0
           0           0           0           4           0           0
           0           0           0           0           0           0
           0           0           0           0           0           0
           0           0           0           0           0           0
           0           0           0           0           0           0
           0           0           0           0
Num RLSW                                   I               41
RLSW                                       R   N=          41
  1.00000000E+00  1.00000000E+00  1.00000000E+00  1.00000000E+00  1.00000000E+00
  0.00000000E+00  0.00000000E+00  1.00000000E+00  0.00000000E+00  0.00000000E+00
  0.00000000E+00  0.00000000E+00  1.00000000E+00  0.00000000E+00  0.00000000E+00
  0.00000000E+00  0.00000000E+00  1.00000000E+00  0.00000000E+00  0.00000000E+00
  0.00000000E+00  0.00000000E+00  1.00000000E+00  0.00000000E+00  0.00000000E+00
  0.00000000E+00  0.00000000E+00  1.00000000E+00  0.00000000E+00  0.00000000E+00
  0.00000000E+00  0.00000000E+00  1.00000000E+00  0.00000000E+00  0.00000000E+00
  0.00000000E+00  0.00000000E+00  0.00000000E+00  1.00000000E+00  1.00000000E+00
  0.00000000E+00
MxBond                                     I                2
NBond                                      I   N=           4
           1           1           2           0
IBond                                      I   N=           8
           3           0           3           0           1           2
           0           0
RBond                                      R   N=           8
  2.00000000E+00  0.00000000E+00  3.00000000E+00  0.00000000E+00  2.00000000E+00
  3.00000000E+00  0.00000000E+00  0.00000000E+00
Virial Ratio                               R      2.006924510551257E+00
SCF Energy                                 R     -4.878064017488967E+02
Total Energy                               R     -4.878064017488967E+02
RMS Force                                  R      4.720895145712121E-02
RMS Density                                R      4.390488576893085E-09
NImag                                      I                2
Job Status                                 I                1
Nuclear derivative order                   I                2
External E-field                           R   N=          35
  0.00000000E+00  0.00000000E+00  0.00000000E+00  0.00000000E+00  0.00000000E+00
  0.00000000E+00  0.00000000E+00  0.00000000E+00  0.00000000E+00  0.00000000E+00
  0.00000000E+00  0.00000000E+00  0.00000000E+00  0.00000000E+00  0.00000000E+00
  0.00000000E+00  0.00000000E+00  0.00000000E+00  0.00000000E+00  0.00000000E+00
  0.00000000E+00  0.00000000E+00  0.00000000E+00  0.00000000E+00  0.00000000E+00
  0.00000000E+00  0.00000000E+00  0.00000000E+00  0.00000000E+00  0.00000000E+00
  0.00000000E+00  0.00000000E+00  0.00000000E+00  0.00000000E+00  0.00000000E+00
IOpCl                                      I                0
IROHF                                      I                0
Alpha Orbital Energies                     R   N=          39
 -9.14584870E+01 -1.55190667E+01 -1.12860810E+01 -8.96937836E+00 -6.64920050E+00
 -6.64543839E+00 -6.64368148E+00 -1.27263019E+00 -1.03404614E+00 -6.39781400E-01
 -5.79964102E-01 -5.53548230E-01 -5.47957851E-01 -3.65161030E-01 -3.54843251E-01
 -1.04083608E-01  1.64364649E-01  1.99691790E-01  2.55357857E-01  4.42035556E-01
  6.20747678E-01  7.01280022E-01  7.23191839E-01  8.75216067E-01  9.37059222E-01
  9.42201287E-01  1.00725358E+00  1.02010655E+00  1.06945776E+00  1.09751476E+00
  1.11615955E+00  1.19615375E+00  1.34483580E+00  1.49635279E+00  1.49857963E+00
  1.54376969E+00  1.73458539E+00  2.93782658E+00  3.78800322E+00
Alpha MO coefficients                      R   N=        1521
  9.84943122E-01  7.36037366E-02  5.63334080E-05  4.97916023E-05  1.14096357E-16
 -9.59560736E-02 -6.37200980E-04 -4.32876707E-04  2.90798642E-17 -6.87292980E-03
  9.94081688E-04  3.77413644E-04 -9.39529066E-17  3.90438337E-02  3.92129190E-02
  3.91124077E-02  6.82465869E-05  1.63593507E-18  2.26659580E-17  1.08542923E-04
  6.90631233E-04 -7.82305500E-05 -9.66928299E-05 -4.98066638E-17 -3.86103501E-03
 -1.48546677E-03 -2.56054457E-04  1.71631646E-17  1.03772547E-04 -4.01396880E-04
 -7.06634336E-04 -4.23141141E-04  4.03299373E-17  3.82798405E-03 -2.14054260E-03
 -1.22754870E-03  4.05677437E-17 -1.84450043E-04  7.25835161E-04 -1.65286681E-05
  6.07908263E-04  2.91033902E-04  3.74757319E-04  1.65720344E-15  8.87780425E-04
 -2.63783136E-03 -2.75840651E-03  1.33301836E-15  9.80064722E-03 -1.70914901E-03
 -5.59551502E-03  1.75903694E-15  2.52743655E-04  3.00387908E-03  1.07168198E-03
  7.76992954E-04 -2.07150905E-16 -3.31088177E-16  9.86365336E-01  1.02446161E-01
  5.55670432E-03  1.90853588E-03 -1.26659464E-15 -8.39611703E-02 -2.62832291E-02
 -8.72037675E-03 -5.88999759E-16  9.31333168E-04  1.75151915E-03  1.05108911E-03
  4.33065319E-04 -3.15470615E-16  3.48793180E-02 -3.99579454E-02 -1.71322794E-02
 -1.01058438E-15 -9.73135492E-04 -1.95346074E-04  3.79229548E-05 -1.15068283E-03
 -4.07876678E-05 -6.09220088E-05  2.77684534E-15  2.97742261E-03 -1.58257370E-03
 -1.13625330E-03  1.18385458E-15  2.57758908E-02 -1.17927848E-02 -1.11771487E-02
  3.80540609E-16 -2.50060743E-03 -2.20982121E-03 -2.43342220E-03  2.33459414E-04
 -3.09711674E-16 -6.21393724E-17 -1.01117585E-04  6.41693960E-04 -2.01423101E-03
 -1.02946681E-03 -1.77416793E-15 -1.00373901E-02 -6.45452706E-03  9.60064830E-05
  4.41914688E-16  9.86519717E-01  9.53880296E-02 -4.08519711E-04  1.84677697E-03
  7.11028778E-17 -4.50084898E-02 -1.84613346E-02 -1.57334165E-02 -6.97008432E-16
  3.93053897E-04  1.57247929E-03 -2.97357902E-01  9.36856411E-01 -6.10877810E-03
 -3.47273957E-03  1.06149336E-16  3.09111331E-01 -2.35480211E-03 -1.54194407E-03
 -1.77704922E-16 -1.29005364E-02  8.77536037E-04  1.35442023E-04  2.15780203E-16
 -8.92176782E-02 -8.92375076E-02 -8.99226186E-02  5.61968046E-04  1.37879564E-17
  3.29063259E-17  1.06640554E-04  6.79067821E-04 -1.57658342E-05 -9.70960281E-05
  8.85980724E-17 -4.38428266E-03 -1.57284367E-03 -7.07569783E-05 -9.69435007E-17
 -2.45569515E-04 -7.21163112E-06 -2.21543286E-04 -6.21147600E-05 -5.84893071E-17
  2.96494438E-03 -3.37197031E-03 -2.34813897E-03  3.07884957E-17 -6.43137911E-05
  8.69133552E-04 -2.42630322E-03  7.77550502E-03  7.53341802E-01  6.15310331E-01
 -3.28896098E-13  1.57089941E-03  6.82269829E-02  5.58006895E-02 -2.69012161E-14
 -1.46437985E-02 -1.31135805E-02 -8.33095074E-03  7.64426046E-15 -4.03491982E-03
 -3.87977319E-03 -4.01886512E-04 -4.13393160E-03 -9.50717132E-17 -1.05548991E-16
 -6.38967908E-04 -3.70180448E-03  3.77038811E-04  9.59790110E-04  8.28512707E-17
  2.85704482E-02  1.00166134E-02 -8.05774951E-04  4.24778397E-16 -4.30094665E-04
 -1.20824626E-03  3.10288761E-03  2.24638780E-03 -2.05619824E-16 -6.27469889E-03
  2.82294241E-02  1.87867076E-02 -3.44033925E-16 -5.27969129E-04 -3.69001552E-04
  3.88278793E-04 -1.32477418E-03 -6.16428488E-01  7.54612295E-01  1.20876783E-12
  7.12457914E-04 -5.09371599E-02  6.28188151E-02  9.76782992E-14 -4.06492570E-03
  1.75277848E-02 -1.75804172E-02 -2.99463398E-14  3.53496097E-04 -5.45663282E-04
  2.74984871E-04 -4.81480526E-04 -7.07335487E-17  1.12367898E-16 -1.72017869E-04
 -1.15121189E-03 -1.90699026E-04  6.01774955E-05  4.95569629E-16  6.57794068E-03
  3.05352638E-03  3.91443980E-04 -7.86868298E-16  7.12891508E-07  1.11523439E-04
  4.71530588E-04 -1.26095451E-04 -4.75910088E-16 -2.94073816E-03  4.70402170E-03
  3.76864187E-03  3.42304459E-15 -2.33477505E-04  4.33352156E-03 -1.94518393E-15
  1.22980728E-14  1.01832292E-12 -7.27453046E-13  9.75041167E-01 -2.81073548E-14
  8.47032002E-14 -6.06700540E-14  7.86746490E-02  1.10226244E-15 -2.74240599E-14
  1.65496197E-14 -2.36551812E-02  1.01569023E-14  1.45401590E-14  1.18708387E-14
 -5.70573618E-16 -3.21472693E-04 -1.38475160E-04 -3.82566992E-16  2.93918508E-15
  5.58432804E-16 -1.94468579E-16 -1.12037112E-04 -1.36748369E-14 -6.34575806E-15
 -1.68589504E-15 -6.90327535E-05 -1.73985040E-15  4.31561219E-16 -4.16918485E-16
  2.94422068E-16 -8.24311028E-04  6.20699967E-15 -7.22725658E-15 -4.79245242E-15
  2.67171087E-03 -8.29862059E-16 -4.46119530E-15  1.01697859E-02 -5.36946074E-02
  1.86304052E-02  1.34142639E-02  7.22639407E-16  4.66944262E-02 -2.72181744E-02
 -1.93250959E-02 -1.18954497E-15 -3.42020294E-02  2.29507724E-02  3.02550651E-02
 -7.34501298E-16  2.03785323E-02  1.05095742E-02  2.48620586E-03  1.40047189E-02
  2.08305224E-16  1.06390981E-16 -1.84809057E-01  1.75259795E-01  1.55604141E-01
  7.05899660E-02  1.20148329E-15  5.74002988E-01  1.37869020E-01  5.84082560E-02
  5.04089106E-16 -1.62130227E-01  1.82454504E-01 -1.75728438E-01 -5.09451360E-02
  3.24825743E-16  1.98034111E-01  9.99992622E-02  7.38211763E-02  4.65058509E-16
  1.90924448E-02  1.53176538E-02  6.00042575E-02 -3.32021259E-01  5.41309047E-02
  4.86119880E-02  4.00147736E-16  3.75696280E-01 -1.00242485E-01 -9.43834418E-02
 -5.24533167E-16  2.92643358E-01 -1.01142214E-02 -3.59706470E-04 -7.69270891E-17
  4.83191734E-02  3.96739696E-02  5.74704444E-03  4.20098360E-02  2.92793952E-16
  6.26008352E-18  7.06965288E-02 -7.32833782E-02 -4.23328864E-02 -5.55227479E-03
  5.40749490E-16 -1.90829856E-01 -2.16636442E-02 -1.77194202E-02 -5.77172810E-16
 -6.76429450E-02  7.50835993E-02  2.08854538E-01  1.38122700E-01  1.27194479E-16
  2.03388069E-01  8.68187720E-02  8.32962169E-02  2.06463532E-16  1.75039753E-02
  1.64741186E-02  4.05155992E-02 -2.37072508E-01 -1.10869590E-01 -1.03604009E-01
 -6.21461885E-16  2.76275230E-01  2.24451797E-01  2.09352027E-01  1.69271601E-15
  5.32105977E-01  5.45246693E-02  6.23448894E-02  1.43606370E-15 -1.23978324E-02
 -6.55834842E-03  3.26729671E-02 -5.07683367E-02  1.38415599E-16 -1.31004650E-16
 -9.17111007E-02  8.71510505E-02 -1.33211056E-01 -5.75108711E-02  8.90405507E-16
  3.36598848E-01 -1.25236054E-01 -3.47648379E-02 -4.08069315E-17  1.23453271E-01
 -1.40798191E-01 -8.71059669E-02 -6.70234181E-02  2.72576895E-16 -4.55725267E-01
 -1.39763895E-01 -1.17270675E-01  5.30922591E-16 -1.22996077E-03  1.78986232E-02
 -9.12766979E-03  5.14558589E-02  7.55727043E-02 -4.24467360E-02  5.91007263E-15
 -6.73191562E-02 -1.51455446E-01  8.89212316E-02 -1.30699721E-14 -7.80301851E-02
 -1.05326834E-01  5.69018193E-02 -9.05529753E-15  2.25135686E-02 -2.94025140E-02
 -1.36592943E-02 -8.52272393E-03  2.68109813E-16  9.75923941E-16 -1.64986761E-02
  1.38668513E-02 -1.82657210E-01  1.95047185E-01 -4.20909875E-15  3.73318404E-02
 -1.85352956E-01  1.86161657E-01 -4.22045198E-15  3.53640291E-02 -6.32374780E-02
 -5.65374120E-02  2.69790038E-01 -7.01765404E-15 -3.44070246E-02 -1.42646801E-01
  2.31459261E-01 -6.88732861E-15  1.31812203E-01  2.40226628E-01 -1.22938663E-02
  7.44227314E-02  5.07603684E-02  9.73849222E-02 -1.25289025E-14 -7.20606115E-02
 -1.13168114E-01 -2.06350278E-01  2.64360180E-14 -1.94222135E-01 -3.07655937E-02
 -1.17607089E-01  1.80157667E-14  2.58758063E-03  2.25353996E-02 -1.68362591E-02
  4.11092724E-02 -3.32872812E-15 -2.90993701E-15 -1.04423928E-01  8.14571213E-02
 -3.23401461E-01 -1.82887870E-01  3.05601794E-14  4.81529339E-01 -2.94083923E-01
 -1.60488659E-01  2.90936728E-14  1.70317021E-02 -4.30038212E-02  3.05752346E-01
  6.43331538E-02  3.70918772E-14  6.35796507E-02  1.22194866E-01 -3.04660498E-02
  3.54674151E-14 -2.94936081E-02 -2.99041513E-02  1.03297821E-15 -6.33953914E-15
 -5.73439605E-15 -8.97991860E-15 -1.15957463E-01  5.57230641E-15  1.39942472E-14
  1.86266120E-14  2.44531111E-01  1.60582998E-14  4.18373116E-15  1.11832778E-14
  1.70054143E-01  8.58490580E-16 -3.08692609E-15  9.44782766E-16 -5.17038716E-15
 -3.04417140E-02 -2.42737703E-02  1.11942460E-14 -8.42246128E-15  2.98251686E-14
  2.93280975E-14  2.81499584E-01 -5.08792796E-14  2.60159875E-14  2.55764036E-14
  2.66883528E-01 -1.19668996E-15  3.84709048E-15 -3.64770938E-14  2.35685462E-15
  3.36974049E-01 -6.29167667E-15 -1.53239796E-14  1.33775202E-14  3.25797196E-01
  4.27446013E-15  5.57072256E-15 -9.24116730E-18 -1.89688711E-16 -3.28231487E-14
  3.18392257E-14 -2.31066511E-01  5.02122387E-15  7.12524755E-14 -6.64965282E-14
  4.97906400E-01 -1.87121754E-14  8.21010083E-14 -6.77930022E-14  5.18576897E-01
 -5.08280449E-15  9.67167210E-16  3.33489568E-16  3.77409549E-18 -1.34854100E-02
 -8.43100315E-03 -1.83221261E-16 -2.23149063E-15 -9.57916591E-15  4.45384014E-14
 -2.37937274E-01  1.34589676E-14 -8.26542164E-15  5.85179074E-14 -2.92930643E-01
  4.29664445E-16 -2.93090020E-15 -8.25186549E-15  1.41898102E-14 -9.91420449E-02
 -1.78251334E-15  7.66817128E-15  2.62525172E-14 -1.17186982E-01  5.93457605E-15
  1.84212385E-14  3.34893757E-03 -1.81193719E-02 -1.38038001E-01  1.39853779E-01
  4.32537229E-14  5.80861730E-02  2.91658802E-01 -2.87665509E-01 -9.20757030E-14
 -1.25532349E-01  3.99153043E-01 -2.90551909E-01 -9.79823591E-14 -1.63820219E-02
  9.61015619E-03  9.06160129E-03  1.06418441E-02  4.59465458E-15  2.47369887E-15
 -1.01551647E-02 -2.13190524E-03 -5.36583401E-02  2.59049978E-01  4.26001576E-14
  1.39119256E-01 -3.92944432E-02  3.31573807E-01  5.49070025E-14  1.31854190E-05
 -3.00382231E-03 -6.50987437E-02  1.14650357E-01  1.07632157E-14 -1.10147459E-02
  5.20932214E-02  2.03865793E-01  1.18665521E-14 -8.95552359E-02 -1.99528227E-01
 -6.81922452E-03  3.70560726E-02 -1.02830588E-01  7.72278752E-02  1.58440157E-14
 -7.03252711E-02  2.15423943E-01 -1.60094321E-01 -3.29480577E-14  5.21268466E-02
  1.89151113E-01 -2.26435892E-01 -4.08427287E-14 -1.60431408E-02  6.19997154E-03
 -1.00476051E-02 -2.32908484E-02 -8.01320113E-17  1.90866734E-16  2.62531333E-02
 -2.64842104E-02  2.70289791E-02 -6.85106281E-02  1.68531871E-14 -1.34004838E-01
  2.43928471E-02 -6.15081273E-02  2.03918918E-14  9.96533187E-03 -1.58929150E-02
  5.14546504E-02 -1.35025732E-01  7.65431574E-15 -4.74126775E-02  3.43844602E-02
 -2.09543268E-01  1.09194763E-14  2.78170669E-01  7.67717175E-01 -1.14062443E-02
  6.47786706E-02 -2.24923280E-02 -1.09322450E-01 -1.09981453E-15 -8.47951475E-02
  5.27739272E-02  2.39106348E-01  2.42610997E-15 -2.68851984E-01  1.47493146E-01
  5.52961536E-01  5.13972217E-15 -8.24739465E-02  6.63944565E-02 -2.93240661E-02
  3.21716782E-02  6.11066477E-16  7.26625892E-16  1.56225756E-02 -3.69803162E-02
 -1.61238088E-01  2.49642473E-01  3.84055742E-15  4.16461507E-02 -2.48991623E-01
  5.18705169E-01  6.46994496E-15 -6.78479717E-02  3.08268462E-02  2.20504267E-01
 -2.14987643E-01 -3.55428724E-15  6.25310362E-01  5.47781819E-01 -4.23336712E-01
 -7.72140960E-15 -3.08480717E-02  6.52289816E-02 -5.22630726E-17  1.91807520E-16
 -6.08322779E-16 -9.53696422E-16  6.95476405E-02  7.11694205E-16  8.60958023E-17
  2.94146671E-15 -1.50810160E-01 -1.87924306E-15  6.32103789E-15  8.76612972E-16
 -3.49574670E-01 -8.42737920E-16  4.56952004E-16 -1.08447176E-15  2.83061650E-16
 -8.85104041E-02 -8.06069500E-02  1.14068801E-16 -6.14237970E-16 -2.12152166E-15
  4.28815250E-15 -3.32143553E-01 -1.89733058E-15 -4.02784044E-15  8.08388800E-15
 -6.78210292E-01 -7.20568542E-16 -2.91765395E-18  1.90221322E-15 -1.22168504E-15
  3.59510908E-01  8.15340661E-15  1.51775536E-15 -4.07614978E-15  7.65315617E-01
 -2.12372907E-15 -1.55632838E-15 -1.72860337E-02  1.14387009E-01 -8.93296052E-02
 -4.97996074E-02 -3.44672324E-16  1.13941123E-02  1.58013308E-01  7.74726006E-02
  1.21497884E-15 -1.15054777E+00  1.16537929E+00  8.18828665E-01 -3.11440193E-16
  9.46443983E-02 -2.60632979E-02 -7.15372613E-02  1.19636545E-01  3.94980571E-16
 -1.46811471E-17  2.41520157E-02 -2.59137423E-02 -3.73992698E-02 -1.63264865E-01
 -5.41618798E-16 -1.57059615E-01 -5.56731386E-02 -3.90445226E-01  7.63641291E-16
 -1.11142597E-01  4.14600175E-02  1.01875091E-01  2.38514973E-01  3.07017020E-16
  1.62323904E+00  2.59395068E-01  7.44458117E-01 -3.79534186E-16  3.21949343E-02
  4.92213476E-02  2.62927792E-02 -1.14853411E-01  6.57295221E-02  9.92949503E-02
 -1.63172571E-16  6.71347279E-01 -1.56808232E-01 -3.01191127E-01  1.74889043E-16
 -1.87911607E+00  6.33058379E-01  9.73914078E-01  7.17031582E-16  1.47898132E-02
  1.76820794E-01  1.46012904E-02  4.96979234E-02 -9.70174427E-16 -1.33856970E-15
 -1.12554685E-01 -2.59137601E-03  1.38482411E-01  5.11918962E-02 -8.01484296E-16
  2.23897958E+00  9.53098042E-01  3.12104993E-01 -1.05907081E-15  4.15271584E-02
  8.65469183E-02  5.26172373E-02 -6.46548599E-02  6.50012524E-17 -1.00569574E+00
  2.17516312E+00  8.91288457E-01  1.55339406E-15  4.00089012E-02  3.95408569E-01
 -4.87663835E-02  2.13282619E-01  1.13925605E-01  1.26703011E-01  5.94795880E-16
 -1.27861547E+00 -3.56904237E-01 -4.09233397E-01 -2.79260832E-15  1.39186782E+00
  2.80141476E-01  4.33923400E-01  2.52365524E-15 -2.28749671E-01 -1.14339194E-01
 -1.07850125E-01 -7.01053995E-02  4.47201054E-16 -3.56819387E-15 -4.74077744E-02
  2.35296915E-02  4.62741400E-02  1.27467657E-03 -5.57854474E-16  8.68546799E-01
  3.77691779E-01  1.17382458E-01  3.08018697E-16  2.88175213E-02 -5.62477340E-03
 -6.76806879E-02  3.10394553E-02 -2.20028965E-16 -7.80909598E-01  7.41381357E-01
  2.44984161E-01 -4.53406233E-16 -9.25533189E-02  5.89370563E-02 -2.01392327E-17
 -6.05068858E-16 -2.29603835E-15  2.07518614E-15 -3.42109466E-01  4.58627901E-16
  9.76216317E-15 -8.17126393E-15  1.23279727E+00  5.35070562E-15 -1.33353392E-14
  9.03343296E-15 -1.21396012E+00 -3.52907558E-15 -1.99045354E-15 -5.46928187E-16
 -4.44377547E-16 -9.67288183E-02 -8.60427179E-02  1.34217643E-17  1.86039849E-16
 -1.12485660E-16 -6.64802415E-17  4.05151736E-02 -9.98221750E-16 -5.98615547E-16
 -7.30680098E-16 -3.61399072E-02 -1.16299702E-16 -6.34225487E-16  7.37838268E-16
 -4.44981972E-16  7.94094053E-02  3.76091868E-17 -1.34259273E-15  4.21942177E-16
  8.89732784E-02 -1.81915544E-15 -3.98730420E-15  3.45651724E-03 -1.36436415E-02
  2.80678145E-01 -2.13922015E-01 -5.26803468E-15  1.10476499E-01 -1.00366947E+00
  7.70980696E-01  1.62852736E-14 -2.59776839E-01  1.06929968E+00 -7.00974025E-01
 -1.11949320E-14  1.39551039E-01 -7.55134833E-02 -3.21647180E-02 -2.38564743E-02
 -1.36673575E-15 -8.26536178E-16 -1.08922195E-02  2.36192230E-02  4.61462377E-02
  2.90717103E-02  1.24970009E-15  1.08169290E-01  6.35520069E-02 -5.64238389E-03
  2.76631242E-16  1.63615698E-02 -9.13305107E-03  1.96069987E-02 -6.79898180E-02
 -1.45674204E-15  1.43570331E-02  6.59888589E-02  1.82127879E-01  1.43096826E-15
  2.53028041E-02  2.50201714E-01 -1.85174108E-02  8.37857038E-02 -1.71136598E-01
 -2.37821656E-01 -6.50084409E-16 -5.39533882E-01  6.67945214E-01  8.96901956E-01
  1.08085036E-15  8.51620350E-02 -4.80510764E-01 -5.16597882E-01 -4.42218503E-16
 -2.80565691E-01  2.34382270E-01 -9.72460069E-02  7.74684868E-02  2.47499650E-15
 -4.91479650E-15 -8.02041363E-02  4.41064934E-02 -2.26400392E-03 -1.37173568E-01
  1.73910547E-16  1.72495388E+00  7.78184678E-01  2.21287423E-01  1.16738210E-15
 -1.88557191E-02  1.26754787E-01 -6.33515560E-02  3.36897156E-01  2.08874538E-15
 -1.48668999E+00  1.61498404E+00  6.15089368E-01 -2.94505134E-15  7.63086218E-02
  3.50881633E-02 -6.20667044E-03  1.87000866E-02 -3.58201359E-02 -2.93634910E-02
 -8.54231622E-16 -2.31943222E-01  1.98476566E-01  1.43827184E-01  4.56720870E-15
 -1.15414131E-01  8.92849776E-02 -1.17389639E-02 -5.00518293E-14 -2.36009593E-01
 -2.36894138E-01  3.46676557E-01  5.29094286E-02 -6.32844726E-14 -3.01464078E-14
 -2.28938365E-02  3.48591509E-02 -6.51530720E-02 -7.81656660E-02 -9.83231558E-15
  4.17956525E-01  1.69407922E-01 -2.63933063E-02 -1.35606530E-14 -4.41271286E-02
  4.68536344E-02  2.48472707E-01 -7.37924913E-01 -1.86193866E-13  8.36793265E-02
  1.76360773E-01  1.21165151E+00  1.78980687E-13  6.46921828E-01 -8.09034586E-01
 -1.15000370E-15  3.17205503E-15 -5.34431431E-15 -4.98609510E-15  6.36012561E-03
 -4.29403704E-14  3.09681882E-14  2.45356559E-14 -2.53807828E-02 -7.36296502E-15
  1.44176266E-14 -7.14348590E-15  2.58306985E-01 -4.51264116E-14 -4.61705317E-14
  6.61286002E-14  1.68812848E-14  3.08349752E-01  2.50423384E-01 -4.78346093E-15
  7.17989616E-15 -9.39380945E-15 -1.30459121E-14  3.77026694E-02  7.56297959E-14
  3.53201546E-14 -2.19554888E-15  8.00344158E-02 -7.08573361E-15  8.06837738E-15
  5.26719533E-14 -1.32553255E-13  1.00011185E+00  1.29675127E-15  2.05226935E-14
  2.13474193E-13 -9.44735529E-01  1.21239248E-13 -1.49509698E-13 -5.92706801E-03
  3.03263146E-02 -7.52932483E-02 -3.55224254E-02  1.08777504E-15 -1.61078352E-01
  3.13994101E-01  1.69539773E-01 -3.57691515E-15 -3.67420395E-01  3.86602563E-02
  3.01148240E-02  7.34051213E-15  4.79928230E-01  4.82167147E-02 -5.63168635E-01
 -4.86138002E-01  5.35570494E-14 -7.06770337E-14 -1.71640161E-02  2.62998870E-02
 -4.96366950E-02 -6.89518786E-02  2.80458687E-15  6.33244809E-01  2.26851893E-01
 -2.43922035E-02  1.76237697E-15 -3.64052658E-02  1.87091766E-01  1.09079828E-01
 -4.91107594E-01  8.93150503E-15 -2.72069846E-01  6.60204372E-01  8.81754950E-01
 -1.40186756E-14 -3.87105125E-01  2.35763539E-01 -5.21879526E-16  2.65046426E-15
 -6.53599767E-15 -3.08707057E-15  9.91403611E-04 -1.23960639E-14  2.69923397E-14
  1.54701598E-14 -2.80765028E-03 -4.20095541E-14  9.06135397E-15  8.52542763E-15
  5.07923709E-03  4.04724409E-14  1.16576553E-14 -5.64635662E-14 -4.76142286E-14
 -6.60893606E-01  7.50219397E-01 -1.06385736E-15  2.83019231E-15 -3.30530325E-15
 -5.20083961E-15 -8.63905825E-03  5.93034187E-14  1.48990790E-14 -5.17417555E-15
  1.06771069E-02 -3.16427442E-15  1.92933330E-14 -3.91699787E-15 -3.13569783E-14
  1.96612458E-02 -1.93511441E-14  7.88052694E-14  7.01649569E-14 -2.37354400E-02
 -4.39022652E-14  3.51671441E-14  8.95481506E-03 -4.96116194E-02  5.78360570E-02
  4.00539970E-02  2.06671305E-15  3.05537772E-01 -1.78067356E-01 -1.20676646E-01
 -7.43506265E-15 -7.58861895E-01  5.17723735E-01  4.30215947E-01  1.69832412E-14
 -3.52306958E-01  5.43652074E-01 -2.44538768E-01 -4.11579362E-01 -1.80741055E-14
 -2.83655890E-14  6.69837908E-02 -6.30966669E-02 -5.80186695E-02 -5.69001607E-02
  1.29137932E-14 -6.27071008E-01 -6.85877719E-01 -2.57502577E-01 -8.98691353E-16
 -4.75107871E-02 -2.63407076E-02 -6.10891737E-01 -7.16145205E-02  2.17584382E-14
  1.57773628E+00  1.25512876E-01  2.63701826E-01 -3.51583615E-14  5.62626207E-01
 -5.15617713E-01  5.20782562E-03 -2.46005560E-02 -1.61116483E-02 -1.98058969E-02
  2.16029469E-15  2.48679004E-01  1.21390020E-01  1.42083702E-01 -8.42809760E-15
 -1.39431788E+00  5.44203481E-01  5.20899168E-01  1.82631951E-14 -6.13850018E-02
 -4.56072046E-01  4.73477997E-01 -4.77688117E-02 -1.88818559E-14 -2.49204591E-14
  4.29813074E-02 -8.19526683E-03 -1.62909402E-02 -8.52537728E-02  1.04423977E-14
  4.27810241E-01 -4.23839615E-01 -2.07853965E-01  4.40070094E-16 -5.30273347E-02
  2.86651499E-01 -7.83293901E-01 -2.00977528E-01  1.79312963E-14  7.83659558E-01
  1.61358966E+00  6.56499425E-01 -3.28270063E-14 -5.08377825E-01  6.99870221E-01