water_new_3                                                             
Freq      RHF                                                         6-31+G              
Number of atoms                            I                3
Info1-9                                    I   N=           9
          13          10           0           0           0         100
           6           1           2
Charge                                     I                0
Multiplicity                               I                1
Number of electrons                        I               10
Number of alpha electrons                  I                5
Number of beta electrons                   I                5
Number of basis functions                  I               17
Number of independent functions            I               17
Number of point charges in /Mol/           I                0
Number of translation vectors              I                0
Atomic numbers                             I   N=           3
           1           8           1
Nuclear charges                            R   N=           3
  1.00000000E+00  8.00000000E+00  1.00000000E+00
Current cartesian coordinates              R   N=           9
  1.48156419E+00 -9.30482251E-01  0.00000000E+00 -3.77945227E-04  1.17484274E-01
  0.00000000E+00 -1.48116734E+00 -9.30179894E-01  0.00000000E+00
Force Field                                I                0
Int Atom Types                             I   N=           3
           0           0           0
MM charges                                 R   N=           3
  0.00000000E+00  0.00000000E+00  0.00000000E+00
Integer atomic weights                     I   N=           3
           1          16           1
Real atomic weights                        R   N=           3
  1.00782504E+00  1.59949146E+01  1.00782504E+00
Atom fragment info                         I   N=           3
           0           0           0
Atom residue num                           I   N=           3
           0           0           0
Nuclear spins                              I   N=           3
           1           0           1
Nuclear ZEff                               R   N=           3
 -1.00000000E+00 -5.60000000E+00 -1.00000000E+00
Nuclear ZNuc                               R   N=           3
  1.00000000E+00  8.00000000E+00  1.00000000E+00
Nuclear QMom                               R   N=           3
  0.00000000E+00  0.00000000E+00  0.00000000E+00
Nuclear GFac                               R   N=           3
  2.79284600E+00  0.00000000E+00  2.79284600E+00
MicOpt                                     I   N=           3
          -1          -1          -1
Number of contracted shells                I                8
Number of primitive shells                 I               19
Pure/Cartesian d shells                    I                1
Pure/Cartesian f shells                    I                0
Highest angular momentum                   I                1
Largest degree of contraction              I                6
Shell types                                I   N=           8
           0           0           0          -1          -1          -1
           0           0
Number of primitives per shell             I   N=           8
           3           1           6           3           1           1
           3           1
Shell to atom map                          I   N=           8
           1           1           2           2           2           2
           3           3
Primitive exponents                        R   N=          19
  1.87311370E+01  2.82539436E+00  6.40121692E-01  1.61277759E-01  5.48467166E+03
  8.25234946E+02  1.88046958E+02  5.29645000E+01  1.68975704E+01  5.79963534E+00
  1.55396162E+01  3.59993359E+00  1.01376175E+00  2.70005823E-01  8.45000000E-02
  1.87311370E+01  2.82539436E+00  6.40121692E-01  1.61277759E-01
Contraction coefficients                   R   N=          19
  3.34946043E-02  2.34726953E-01  8.13757326E-01  1.00000000E+00  1.83107443E-03
  1.39501722E-02  6.84450781E-02  2.32714336E-01  4.70192898E-01  3.58520853E-01
 -1.10777550E-01 -1.48026263E-01  1.13076702E+00  1.00000000E+00  1.00000000E+00
  3.34946043E-02  2.34726953E-01  8.13757326E-01  1.00000000E+00
P(S=P) Contraction coefficients            R   N=          19
  0.00000000E+00  0.00000000E+00  0.00000000E+00  0.00000000E+00  0.00000000E+00
  0.00000000E+00  0.00000000E+00  0.00000000E+00  0.00000000E+00  0.00000000E+00
  7.08742682E-02  3.39752839E-01  7.27158577E-01  1.00000000E+00  1.00000000E+00
  0.00000000E+00  0.00000000E+00  0.00000000E+00  0.00000000E+00
Coordinates of each shell                  R   N=          24
  1.48156419E+00 -9.30482251E-01  0.00000000E+00  1.48156419E+00 -9.30482251E-01
  0.00000000E+00 -3.77945227E-04  1.17484274E-01  0.00000000E+00 -3.77945227E-04
  1.17484274E-01  0.00000000E+00 -3.77945227E-04  1.17484274E-01  0.00000000E+00
 -3.77945227E-04  1.17484274E-01  0.00000000E+00 -1.48116734E+00 -9.30179894E-01
  0.00000000E+00 -1.48116734E+00 -9.30179894E-01  0.00000000E+00
Constraint Structure                       R   N=           9
  1.48156419E+00 -9.30482251E-01  0.00000000E+00 -3.77945227E-04  1.17484274E-01
  0.00000000E+00 -1.48116734E+00 -9.30179894E-01  0.00000000E+00
Num ILSW                                   I              100
ILSW                                       I   N=         100
           0           1           0           0           2           0
           0           0           0           0           0          -1
           0           0           0           0           2           0
           0           0           0           0           1           0
           1           1           0           0           0           0
           0           0      100000           0          -1           0
           0           0           0           0           0           0
           0           0           0           1           0           0
           0           0           1           0           0           0
           0           0           4          41           0           0
           0           0           0           0           0           0
           0           0           0           3           0           0
           0           0           0           0           0           0
           0           0           0           0           0           0
           0           0           0           0           0           0
           0           0           0           0           0           0
           0           0           0           0
Num RLSW                                   I               41
RLSW                                       R   N=          41
  1.00000000E+00  1.00000000E+00  1.00000000E+00  1.00000000E+00  1.00000000E+00
  0.00000000E+00  0.00000000E+00  1.00000000E+00  0.00000000E+00  0.00000000E+00
  0.00000000E+00  0.00000000E+00  1.00000000E+00  0.00000000E+00  0.00000000E+00
  0.00000000E+00  0.00000000E+00  1.00000000E+00  0.00000000E+00  0.00000000E+00
  0.00000000E+00  0.00000000E+00  1.00000000E+00  0.00000000E+00  0.00000000E+00
  0.00000000E+00  0.00000000E+00  1.00000000E+00  0.00000000E+00  0.00000000E+00
  0.00000000E+00  0.00000000E+00  1.00000000E+00  0.00000000E+00  0.00000000E+00
  0.00000000E+00  0.00000000E+00  0.00000000E+00  1.00000000E+00  1.00000000E+00
  0.00000000E+00
MxBond                                     I                2
NBond                                      I   N=           3
           1           2           1
IBond                                      I   N=           6
           2           0           1           3           2           0
RBond                                      R   N=           6
  1.00000000E+00  0.00000000E+00  1.00000000E+00  1.00000000E+00  1.00000000E+00
  0.00000000E+00
Virial Ratio                               R      2.000843011551513E+00
SCF Energy                                 R     -7.599263220794254E+01
Total Energy                               R     -7.599263220794254E+01
RMS Force                                  R      7.898307244295161E-03
RMS Density                                R      6.766545780946478E-09
Job Status                                 I                1
Nuclear derivative order                   I                2
External E-field                           R   N=          35
  0.00000000E+00  0.00000000E+00  0.00000000E+00  0.00000000E+00  0.00000000E+00
  0.00000000E+00  0.00000000E+00  0.00000000E+00  0.00000000E+00  0.00000000E+00
  0.00000000E+00  0.00000000E+00  0.00000000E+00  0.00000000E+00  0.00000000E+00
  0.00000000E+00  0.00000000E+00  0.00000000E+00  0.00000000E+00  0.00000000E+00
  0.00000000E+00  0.00000000E+00  0.00000000E+00  0.00000000E+00  0.00000000E+00
  0.00000000E+00  0.00000000E+00  0.00000000E+00  0.00000000E+00  0.00000000E+00
  0.00000000E+00  0.00000000E+00  0.00000000E+00  0.00000000E+00  0.00000000E+00
IOpCl                                      I                0
IROHF                                      I                0
Alpha Orbital Energies                     R   N=          17
 -2.05781834E+01 -1.36592724E+00 -7.33534963E-01 -5.65618150E-01 -5.11534163E-01
  1.43242542E-01  2.20024238E-01  2.51976593E-01  2.59713897E-01  3.54220763E-01
  3.70113225E-01  1.30487182E+00  1.35937239E+00  1.40263177E+00  1.41597102E+00
  1.44294500E+00  1.74825335E+00
Alpha MO coefficients                      R   N=         289
  6.41973902E-05  1.98520808E-03  9.95781156E-01  2.21115757E-02 -6.15318942E-07
 -1.88111548E-03 -2.65010440E-16 -8.35916527E-03  4.31942414E-07  1.42990717E-03
  2.78503758E-16  3.15325760E-04  1.42221360E-06  4.93000111E-04 -3.21553595E-16
  6.23812953E-05  1.99121726E-03  1.40912347E-01 -3.99502814E-02 -2.13362271E-01
  4.73107658E-01 -1.37123295E-04 -1.06399578E-01 -2.92599958E-16  4.85129353E-01
 -2.70942721E-06 -6.24112010E-02  5.62809253E-16  4.65071679E-02 -3.96839018E-05
 -1.70379664E-02 -6.67261400E-17  1.41166892E-01 -4.00753447E-02  2.62573915E-01
  1.09110530E-01 -7.56978432E-05  1.44326424E-04  5.09028947E-01  2.94644287E-04
 -7.46575522E-16  3.96619719E-04  2.68622223E-01  7.44889585E-05 -5.34146921E-16
  2.33199081E-05  3.49806915E-03  3.14155084E-05  6.16979729E-16 -2.62735943E-01
 -1.09071385E-01 -1.38685456E-01 -6.56988787E-02 -7.07138251E-02  1.77277708E-01
 -2.18104884E-04  5.60696686E-01  1.27931919E-15  2.56977003E-01 -1.82203979E-04
  3.82345269E-01  8.77554655E-16  2.30056323E-02  1.05024471E-06  6.19413976E-02
  1.51644972E-16 -1.38514999E-01 -6.54959128E-02  3.88785450E-16  1.94635574E-15
  1.33958323E-16 -4.61429274E-16  1.93214564E-16 -1.03982057E-15  6.40474745E-01
 -1.41338242E-17 -4.13517936E-16 -6.15627068E-16  4.65066187E-01 -2.19505254E-16
 -1.15334181E-15 -4.99616072E-16  8.12332579E-02  7.03832307E-17 -2.11622252E-15
  5.55989325E-02 -3.41020832E-01  6.65964200E-02 -8.70383295E-02 -1.69081912E-04
  1.76443162E-01 -3.07248402E-16 -7.55217663E-01 -3.94006513E-04  2.12863890E-01
 -1.22613583E-16  1.74988108E+00 -4.16192287E-04 -7.42890562E-01  4.27889112E-17
  5.54937640E-02 -3.42538795E-01  7.73881855E-03 -2.81519696E-01  4.16988088E-05
 -1.89513975E-05 -1.95483843E-01  6.57796501E-05  5.70949284E-16 -6.73858822E-04
 -4.45222827E-01  1.76637693E-04  8.19386794E-16 -7.36317703E-04  1.41661415E+00
  6.59662341E-04 -2.06771209E-15 -7.57068409E-03  2.83160712E-01  7.65527543E-17
 -3.27928605E-15 -9.91419451E-17  5.52781125E-17  2.63163979E-16 -4.29750220E-17
 -2.07830881E-01  1.57497612E-15 -2.82484374E-16 -1.53697412E-16 -5.15400492E-01
  1.48166725E-15  3.22478790E-15 -1.71921647E-15  1.23392201E+00 -3.35515512E-16
 -7.96135879E-16  3.52909266E-02  5.47437870E-01  5.43323420E-02 -6.90371359E-02
 -5.20091483E-05 -1.08121080E-01 -3.41832298E-16 -7.11744120E-01 -3.19531106E-05
 -3.14798219E-01 -5.42467399E-16  7.59535567E-02 -9.76607209E-04  1.31102594E+00
  1.28373027E-15  3.52127355E-02  5.46169601E-01  1.08055285E-01  2.10052354E+00
  3.31532125E-04 -4.54129008E-04 -2.77364027E-01  1.76391796E-03 -4.52792081E-16
 -5.50534199E-03 -7.69640152E-01  5.23161926E-03  1.34599663E-16 -2.51613811E-02
 -1.28865067E+00  6.68574856E-03  3.79131629E-16 -1.05962086E-01 -2.06331503E+00
 -1.27162705E-01 -2.43044989E+00 -4.92360638E-02  5.89561580E-02 -2.19266966E-03
 -2.21692357E-01  3.93567761E-16  8.97837227E-01 -6.67010918E-03 -6.83753249E-01
  2.30996314E-16  3.16167684E+00 -1.00561330E-02 -8.96443339E-01 -1.07191851E-15
 -1.28790157E-01 -2.46607314E+00 -9.28230435E-01  1.67971667E+00 -4.13392226E-04
  4.24434097E-03  6.72705549E-01 -4.75677912E-03  4.04607489E-15 -7.15744974E-03
 -2.92750845E-01  5.15403759E-03 -5.30333969E-15 -1.23904517E-02 -8.01448875E-01
  3.50861284E-03  2.29527328E-15  9.17033345E-01 -1.65260496E+00 -7.04881622E-01
  1.75054796E+00 -5.24543587E-02  5.51457937E-01 -4.74801826E-03 -7.61800352E-01
 -2.25938250E-15 -9.26649292E-01  1.51746334E-03  8.43176579E-01  3.20237197E-15
 -1.64645789E+00  6.16870925E-03  3.85014740E-01 -1.30740891E-15 -7.18959564E-01
  1.77595027E+00 -2.87967503E-14  1.44823606E-14 -2.63204226E-16 -3.62635507E-16
 -2.48538521E-14  6.21240226E-15 -9.90476037E-01  3.70228236E-15  5.99405981E-14
 -1.21630625E-14  1.43164716E+00  1.48844073E-15 -2.96978040E-14  3.79433049E-15
 -6.48618422E-01  2.07702080E-14 -1.60028646E-14 -6.01622078E-01  2.85249907E-01
  3.08782886E-04 -3.21074157E-04 -7.96716615E-01 -4.54164548E-03  3.46363291E-14
 -2.22635236E-03  1.74614367E+00  1.02506493E-02 -4.98072254E-14  4.04815606E-03
 -7.94130344E-01 -5.47885416E-03  2.23661996E-14  6.12055614E-01 -2.93203558E-01
  7.85646844E-01 -7.84448387E-01  5.03832981E-02 -2.02479232E-01  6.10343120E-03
 -6.64852772E-01 -7.19390806E-15  7.79736969E-03 -1.16864013E-02  1.42513663E+00
  1.07031624E-14  7.04434715E-01  4.82445145E-03 -8.68144236E-01 -4.83822500E-15
  7.79188220E-01 -7.82759537E-01 -5.05949607E-01  2.14073003E-02  5.38281105E-02
 -1.68027108E+00 -4.47469715E-04 -1.20094304E-01  6.59455626E-16  2.64851929E+00
  5.91115816E-04 -2.02512605E-01 -4.22220851E-16 -9.00226211E-01 -8.67174665E-04
 -2.51229296E-02 -3.55698018E-17 -5.04969652E-01  1.91732674E-02
Total SCF Density                          R   N=         153
  2.16070021E-01  6.42633953E-02  3.56428331E-02 -4.04286983E-02  3.02765503E-02
  2.08420804E+00  8.42403735E-02 -6.09761742E-02 -1.82922060E-01  5.11494369E-01
  2.67337299E-01  1.11120449E-01  1.10697036E-05 -6.01729853E-05  5.18221071E-01
 -1.85352490E-01 -6.51160721E-02 -3.76411068E-02  9.80380324E-02  8.45656077E-05
  6.51410538E-01 -3.31389844E-16  2.18449192E-15 -4.12149456E-16 -4.26275704E-16
 -5.13036489E-16  1.65484535E-16  8.20415799E-01  6.56506968E-02 -7.24749488E-02
 -2.60008114E-01  5.49779858E-01  1.58651174E-04  1.84968874E-01  3.59347172E-16
  6.02915404E-01  1.41116152E-01  5.86431859E-02 -1.28831460E-05  1.03925628E-05
  2.73473055E-01 -4.54513883E-05 -9.31253980E-16  1.16801210E-04  1.44315864E-01
 -1.23601173E-01 -4.52306884E-02 -2.45940638E-02  7.65714079E-02 -7.38343693E-05
  4.42035165E-01  2.25350029E-16  1.35929025E-01 -9.89714466E-05  3.00170225E-01
 -3.64299368E-18  1.53463467E-15  3.15062414E-16  4.26652315E-16 -3.64614858E-16
 -1.04214703E-16  5.95726296E-01  9.78867156E-16 -6.71916483E-16  2.89087644E-17
  4.32573117E-01  6.73806208E-03 -6.73249652E-03 -2.24713951E-02  5.21765176E-02
  9.50914810E-07  1.59005049E-02 -2.49729989E-16  5.69425682E-02  3.89331250E-06
  1.17879581E-02 -1.11291488E-16  5.38455152E-03  1.82552840E-03  7.66390774E-04
  1.90883957E-05 -3.61045234E-05  3.56124734E-03  1.16784598E-05 -1.48257060E-15
 -3.52128444E-05  1.87931806E-03  6.28175446E-06 -1.07653956E-15 -3.47880246E-06
  2.44761315E-05 -2.19659006E-02 -6.76880468E-03 -5.07872191E-04  5.86188426E-03
  9.63536114E-06  7.30845013E-02 -4.71834907E-16  1.52955769E-02 -5.60137861E-06
  4.94941351E-02 -3.74932366E-16  1.26553928E-03  1.70356277E-06  8.25454614E-03
  3.26261919E-16  4.34984552E-16 -6.11696798E-16 -9.83795764E-17  6.59464527E-16
  1.68902448E-17  1.04055700E-01  1.67659013E-17  2.64230938E-16  2.34439402E-17
  7.55576831E-02 -3.50653769E-17 -1.83058250E-16 -6.03892104E-17  1.31976844E-02
 -5.97708545E-02 -5.04130224E-02 -4.04855132E-02  8.43899513E-02 -2.67458694E-01
 -1.85525060E-01  4.54081001E-17  6.55686117E-02 -1.41103715E-01 -1.23580863E-01
  2.61970759E-16  6.74507980E-03 -1.84963187E-03 -2.19864653E-02 -3.73659951E-16
  2.16289352E-01 -5.04059061E-02 -1.19857087E-02  3.03462124E-02 -6.10852614E-02
 -1.11001426E-01 -6.49904489E-02 -2.69309776E-15 -7.26651483E-02 -5.85739096E-02
 -4.50923587E-02 -2.01079970E-15 -6.74496264E-03 -7.60029710E-04 -6.75310172E-03
 -4.94201638E-16  6.41439036E-02  3.55925595E-02
Mulliken Charges                           R   N=           3
  4.55263354E-01 -9.10582199E-01  4.55318845E-01
ONIOM Charges                              I   N=          16
           0           0           0           0           0           0
           0           0           0           0           0           0
           0           0           0           0
ONIOM Multiplicities                       I   N=          16
           1           0           0           0           0           0
           0           0           0           0           0           0
           0           0           0           0
Atom Layers                                I   N=           3
           1           1           1
Atom Modifiers                             I   N=           3
           0           0           0
Force Field                                I                0
Int Atom Modified Types                    I   N=           3
           0           0           0
Link Atoms                                 I   N=           3
           0           0           0
Atom Modified MM Charges                   R   N=           3
  0.00000000E+00  0.00000000E+00  0.00000000E+00
Link Distances                             R   N=          12
  0.00000000E+00  0.00000000E+00  0.00000000E+00  0.00000000E+00  0.00000000E+00
  0.00000000E+00  0.00000000E+00  0.00000000E+00  0.00000000E+00  0.00000000E+00
  0.00000000E+00  0.00000000E+00
Cartesian Gradient                         R   N=           9
  5.34263653E-03 -9.39039238E-03  8.19875264E-19 -5.11216704E-04  1.84253161E-02
 -1.40989673E-17 -4.83141983E-03 -9.03492375E-03  1.32790920E-17
Cartesian Force Constants                  R   N=          45
  4.07330021E-01 -2.23525551E-01  2.01901292E-01 -1.22110781E-16  1.20176083E-16
  6.28221649E-03 -3.74792664E-01  2.58709204E-01  1.42210230E-16  7.50911759E-01
  1.88316168E-01 -2.17268396E-01 -1.52741179E-16  1.28676773E-03  4.35232637E-01
  1.34510916E-16 -1.17981893E-16 -8.96135861E-03 -2.08268265E-16  1.17681822E-16
  1.75844583E-02 -3.25373566E-02 -3.51836534E-02 -2.00994486E-17 -3.76119095E-01
 -1.89602936E-01  7.37573488E-17  4.08656451E-01  3.52093824E-02  1.53671044E-02
  3.25650967E-17 -2.59995972E-01 -2.17964240E-01  3.00071309E-19  2.24786589E-01
  2.02597136E-01 -1.24001353E-17 -2.19418908E-18  2.67914212E-03  6.60580355E-17
  3.50593571E-17 -8.62309972E-03 -5.36579002E-17 -3.28651680E-17  5.94395760E-03
Dipole Moment                              R   N=           3
  3.01139300E-04 -1.04377434E+00 -3.98497626E-16
Dipole Derivatives                         R   N=          27
  2.98295888E-01  1.01159284E-01 -4.29943846E-16  1.41503606E-01  2.28933598E-01
  4.32184790E-16 -2.67899394E-16 -1.14078477E-16  4.97979575E-01 -5.96604931E-01
 -1.77468290E-05  1.03655509E-15 -4.01557970E-04 -4.57875258E-01 -1.11013747E-16
  8.31182269E-16  1.89859275E-16 -9.96143422E-01  2.98309043E-01 -1.01141537E-01
 -6.06611247E-16 -1.41102049E-01  2.28941660E-01 -3.21171043E-16 -5.63282875E-16
 -7.57807974E-17  4.98163847E-01
Polarizability                             R   N=           6
  7.19858015E+00 -3.75551211E-03  5.01611324E+00  9.98328399E-16 -2.72424156E-15
  3.87271118E+00
Polarizability Derivatives                 R   N=          54
  5.31720280E+00 -2.58619699E+00  1.58754074E+00 -1.57179195E-15 -1.71056037E-15
  4.60348521E-02 -2.64194376E+00  2.56763585E+00 -2.95883776E+00 -2.27479571E-15
 -2.38467341E-15 -1.82718301E-01  1.61648024E-15 -1.53192091E-15 -1.47783419E-15
  1.12419765E+00 -5.46667167E-01 -6.39887763E-15 -7.95913945E-03  5.17018318E+00
 -2.37602825E-04 -2.09132471E-16  3.14138208E-15  1.47131548E-04  5.28429969E+00
 -4.96455237E-03  5.91441431E+00  5.36507938E-15  1.46547243E-17  3.65673363E-01
 -2.94910784E-15  2.99816602E-15  2.04407525E-15 -3.26013656E-03  1.09122383E+00
 -1.66422709E-15 -5.30924366E+00 -2.58398619E+00 -1.58730313E+00 -4.45222014E-16
 -1.43082172E-15 -4.61819837E-02 -2.64235593E+00 -2.56267130E+00 -2.95557655E+00
 -3.09028366E-15  1.43872254E-16 -1.82955062E-01  1.33262760E-15 -1.46624511E-15
 -5.66241057E-16 -1.12093752E+00 -5.44556667E-01  3.61081186E-15
HyperPolarizability                        R   N=          10
  2.98513131E-02 -1.66013220E+01  9.71978351E-03 -8.61530798E+00 -2.60157566E-14
 -4.94387421E-14 -4.34216216E-14 -9.47591784E-03 -1.45522739E+00 -2.22162541E-13
QEq coupling tensors                       R   N=          18
 -3.02049971E-01  3.47703163E-01  8.73900554E-03  7.07610963E-18  4.76441982E-17
  2.93310965E-01 -1.73948913E+00  7.91040934E-04 -1.00962170E-01  8.31793711E-16
  1.10558888E-16  1.84045130E+00 -3.02905911E-01 -3.49143883E-01  8.55815292E-03
 -2.10616025E-16 -1.76392032E-16  2.94347758E-01
