water_old                                                               
Freq      RHF                                                         6-31+G              
Number of atoms                            I                3
Info1-9                                    I   N=           9
          11          10           0           0           0         100
           6           1           2
Charge                                     I                0
Multiplicity                               I                1
Number of electrons                        I               10
Number of alpha electrons                  I                5
Number of beta electrons                   I                5
Number of basis functions                  I               17
Number of independent functions            I               17
Number of point charges in /Mol/           I                0
Number of translation vectors              I                0
Atomic numbers                             I   N=           3
           1           8           1
Nuclear charges                            R   N=           3
  1.00000000E+00  8.00000000E+00  1.00000000E+00
Current cartesian coordinates              R   N=           9
  1.48123726E+00 -9.30191233E-01  0.00000000E+00  0.00000000E+00  1.17200815E-01
  0.00000000E+00 -1.48123726E+00 -9.30191233E-01  0.00000000E+00
Force Field                                I                0
Int Atom Types                             I   N=           3
           0           0           0
MM charges                                 R   N=           3
  0.00000000E+00  0.00000000E+00  0.00000000E+00
Integer atomic weights                     I   N=           3
           1          16           1
Real atomic weights                        R   N=           3
  1.00782504E+00  1.59949146E+01  1.00782504E+00
Atom fragment info                         I   N=           3
           0           0           0
Atom residue num                           I   N=           3
           0           0           0
Nuclear spins                              I   N=           3
           1           0           1
Nuclear ZEff                               R   N=           3
 -1.00000000E+00 -5.60000000E+00 -1.00000000E+00
Nuclear ZNuc                               R   N=           3
  1.00000000E+00  8.00000000E+00  1.00000000E+00
Nuclear QMom                               R   N=           3
  0.00000000E+00  0.00000000E+00  0.00000000E+00
Nuclear GFac                               R   N=           3
  2.79284600E+00  0.00000000E+00  2.79284600E+00
MicOpt                                     I   N=           3
          -1          -1          -1
Number of contracted shells                I                8
Number of primitive shells                 I               19
Pure/Cartesian d shells                    I                1
Pure/Cartesian f shells                    I                0
Highest angular momentum                   I                1
Largest degree of contraction              I                6
Shell types                                I   N=           8
           0           0           0          -1          -1          -1
           0           0
Number of primitives per shell             I   N=           8
           3           1           6           3           1           1
           3           1
Shell to atom map                          I   N=           8
           1           1           2           2           2           2
           3           3
Primitive exponents                        R   N=          19
  1.87311370E+01  2.82539436E+00  6.40121692E-01  1.61277759E-01  5.48467166E+03
  8.25234946E+02  1.88046958E+02  5.29645000E+01  1.68975704E+01  5.79963534E+00
  1.55396162E+01  3.59993359E+00  1.01376175E+00  2.70005823E-01  8.45000000E-02
  1.87311370E+01  2.82539436E+00  6.40121692E-01  1.61277759E-01
Contraction coefficients                   R   N=          19
  3.34946043E-02  2.34726953E-01  8.13757326E-01  1.00000000E+00  1.83107443E-03
  1.39501722E-02  6.84450781E-02  2.32714336E-01  4.70192898E-01  3.58520853E-01
 -1.10777550E-01 -1.48026263E-01  1.13076702E+00  1.00000000E+00  1.00000000E+00
  3.34946043E-02  2.34726953E-01  8.13757326E-01  1.00000000E+00
P(S=P) Contraction coefficients            R   N=          19
  0.00000000E+00  0.00000000E+00  0.00000000E+00  0.00000000E+00  0.00000000E+00
  0.00000000E+00  0.00000000E+00  0.00000000E+00  0.00000000E+00  0.00000000E+00
  7.08742682E-02  3.39752839E-01  7.27158577E-01  1.00000000E+00  1.00000000E+00
  0.00000000E+00  0.00000000E+00  0.00000000E+00  0.00000000E+00
Coordinates of each shell                  R   N=          24
  1.48123726E+00 -9.30191233E-01  0.00000000E+00  1.48123726E+00 -9.30191233E-01
  0.00000000E+00  0.00000000E+00  1.17200815E-01  0.00000000E+00  0.00000000E+00
  1.17200815E-01  0.00000000E+00  0.00000000E+00  1.17200815E-01  0.00000000E+00
  0.00000000E+00  1.17200815E-01  0.00000000E+00 -1.48123726E+00 -9.30191233E-01
  0.00000000E+00 -1.48123726E+00 -9.30191233E-01  0.00000000E+00
Constraint Structure                       R   N=           9
  1.48123726E+00 -9.30191233E-01  0.00000000E+00  0.00000000E+00  1.17200815E-01
  0.00000000E+00 -1.48123726E+00 -9.30191233E-01  0.00000000E+00
Num ILSW                                   I              100
ILSW                                       I   N=         100
           0           1           0           0           2           0
           0           0           0           0           0          -1
           0           0           0           0           2           0
           0           0           1           0           1           0
           1           1           0           0           0           0
           0           0      100000           0          -1           0
           0           0           0           0           0           0
           0           0           0           1           0           0
           0           0           1           0           0           0
           0           0           4          41           0           0
           0           0           0           0           0           0
           0           0           0           0           0           0
           0           0           0           0           0           0
           0           0           0           0           0           0
           0           0           0           0           0           0
           0           0           0           0           0           0
           0           0           0           0
Num RLSW                                   I               41
RLSW                                       R   N=          41
  1.00000000E+00  1.00000000E+00  1.00000000E+00  1.00000000E+00  1.00000000E+00
  0.00000000E+00  0.00000000E+00  1.00000000E+00  0.00000000E+00  0.00000000E+00
  0.00000000E+00  0.00000000E+00  1.00000000E+00  0.00000000E+00  0.00000000E+00
  0.00000000E+00  0.00000000E+00  1.00000000E+00  0.00000000E+00  0.00000000E+00
  0.00000000E+00  0.00000000E+00  1.00000000E+00  0.00000000E+00  0.00000000E+00
  0.00000000E+00  0.00000000E+00  1.00000000E+00  0.00000000E+00  0.00000000E+00
  0.00000000E+00  0.00000000E+00  1.00000000E+00  0.00000000E+00  0.00000000E+00
  0.00000000E+00  0.00000000E+00  0.00000000E+00  1.00000000E+00  1.00000000E+00
  0.00000000E+00
MxBond                                     I                2
NBond                                      I   N=           3
           1           2           1
IBond                                      I   N=           6
           2           0           1           3           2           0
RBond                                      R   N=           6
  1.00000000E+00  0.00000000E+00  1.00000000E+00  1.00000000E+00  1.00000000E+00
  0.00000000E+00
Virial Ratio                               R      2.000833844159084E+00
SCF Energy                                 R     -7.599264142232175E+01
Total Energy                               R     -7.599264142232175E+01
RMS Force                                  R      7.785212532615459E-03
RMS Density                                R      6.754759905468291E-09
Job Status                                 I                1
Nuclear derivative order                   I                2
External E-field                           R   N=          35
  0.00000000E+00  0.00000000E+00  0.00000000E+00  0.00000000E+00  0.00000000E+00
  0.00000000E+00  0.00000000E+00  0.00000000E+00  0.00000000E+00  0.00000000E+00
  0.00000000E+00  0.00000000E+00  0.00000000E+00  0.00000000E+00  0.00000000E+00
  0.00000000E+00  0.00000000E+00  0.00000000E+00  0.00000000E+00  0.00000000E+00
  0.00000000E+00  0.00000000E+00  0.00000000E+00  0.00000000E+00  0.00000000E+00
  0.00000000E+00  0.00000000E+00  0.00000000E+00  0.00000000E+00  0.00000000E+00
  0.00000000E+00  0.00000000E+00  0.00000000E+00  0.00000000E+00  0.00000000E+00
IOpCl                                      I                0
IROHF                                      I                0
Alpha Orbital Energies                     R   N=          17
 -2.05781382E+01 -1.36600805E+00 -7.33672611E-01 -5.65614987E-01 -5.11539859E-01
  1.43251907E-01  2.20008127E-01  2.51974834E-01  2.59717526E-01  3.54324604E-01
  3.70150549E-01  1.30518124E+00  1.35957615E+00  1.40263374E+00  1.41585627E+00
  1.44284131E+00  1.74816045E+00
Alpha MO coefficients                      R   N=         289
  6.26440578E-05  1.98980945E-03  9.95780989E-01  2.21124345E-02  8.82197018E-16
 -1.88121000E-03 -3.07313060E-16 -8.36013237E-03 -1.19291230E-15  1.42980836E-03
  3.88177767E-16  3.13723513E-04  8.45855545E-16  4.93407069E-04 -4.18455625E-16
  6.26440578E-05  1.98980945E-03  1.41085183E-01 -4.00475181E-02 -2.13360392E-01
  4.73102323E-01 -5.18583799E-16 -1.06424738E-01 -1.21975026E-16  4.85080035E-01
  1.44387001E-15 -6.23937370E-02  1.24209400E-16  4.65404267E-02  5.63556995E-15
 -1.70482102E-02  3.43247615E-17  1.41085183E-01 -4.00475181E-02  2.62694004E-01
  1.09018837E-01 -1.17153670E-16 -3.74984004E-16  5.09052419E-01  6.21978617E-17
  6.84108651E-15  2.90768670E-15  2.68552198E-01 -1.11537735E-15  5.06145446E-15
  9.80403614E-15  3.51579455E-03 -4.06479618E-15  6.41616183E-16 -2.62694004E-01
 -1.09018837E-01 -1.38570221E-01 -6.55300730E-02 -7.07094590E-02  1.77259002E-01
 -2.22822384E-16  5.60737948E-01 -1.25575397E-15  2.56976265E-01  1.72500907E-15
  3.82375212E-01 -8.24507236E-16  2.29788598E-02  3.63415525E-15  6.19573632E-02
 -9.94795820E-17 -1.38570221E-01 -6.55300730E-02 -2.66110043E-15 -3.70206844E-15
 -6.04163483E-17  2.55526341E-16 -2.48478229E-15  7.84016708E-16  6.40468734E-01
  8.88884509E-17 -7.75166066E-16  6.43116163E-16  4.65075962E-01  1.19774272E-15
 -2.84289056E-15  5.86322715E-16  8.12274990E-02  2.60425046E-15  2.47025474E-15
  5.55035214E-02 -3.42201625E-01  6.65825623E-02 -8.70419388E-02 -1.13604461E-15
  1.76356495E-01 -6.69899786E-17 -7.54949583E-01 -4.47183761E-15  2.12708441E-01
  1.55079805E-16  1.75038938E+00 -9.63106884E-15 -7.43035346E-01 -1.09740425E-16
  5.55035214E-02 -3.42201625E-01  7.63103200E-03 -2.82803126E-01 -2.74118285E-16
 -1.02947631E-15 -1.95400036E-01  1.89378731E-15 -2.96997642E-15  7.77392412E-15
 -4.44981047E-01  6.66280570E-15 -7.35290024E-15 -4.67902370E-15  1.41688474E+00
 -1.70332876E-14  1.95580091E-14 -7.63103200E-03  2.82803126E-01  7.98263550E-16
  7.37190682E-15 -1.31334012E-16  1.26664360E-16  2.29455533E-15  1.37534204E-16
 -2.07827640E-01  1.89226837E-15  6.41810016E-15  3.95982257E-16 -5.15403326E-01
  9.56774475E-16 -2.75257272E-14 -3.09362927E-15  1.23392369E+00 -9.59468971E-16
 -1.15443933E-14  3.52440395E-02  5.46463018E-01  5.43329314E-02 -6.90248912E-02
 -1.79160912E-14 -1.08159088E-01 -7.44477592E-16 -7.11821759E-01 -5.80027010E-14
 -3.14885067E-01 -6.25502831E-16  7.65066965E-02 -7.48731898E-14  1.31076721E+00
  2.40712101E-15  3.52440395E-02  5.46463018E-01  1.06969753E-01  2.08282103E+00
  2.84204899E-14 -1.61621579E-14 -2.77361336E-01  1.59332474E-13  9.09215585E-16
 -5.93107718E-13 -7.70098163E-01  4.95599190E-13  2.08070990E-15 -2.19749322E-12
 -1.28883687E+00  5.36792795E-13 -3.88447674E-15 -1.06969753E-01 -2.08282103E+00
 -1.27993404E-01 -2.44868322E+00 -4.92740702E-02  5.89583044E-02 -2.01242338E-13
 -2.21646995E-01 -5.21018436E-18  8.98872802E-01 -5.28752305E-13 -6.83778506E-01
  4.74654789E-16  3.16161468E+00 -8.79257293E-13 -8.96187119E-01 -8.69379062E-16
 -1.27993404E-01 -2.44868322E+00 -9.22813033E-01  1.66636749E+00 -1.33478227E-14
  1.30616149E-13  6.72822206E-01 -5.84200259E-14  3.56691676E-15 -1.71712350E-13
 -2.92484851E-01  1.69754725E-14 -6.71837654E-15 -2.13965691E-13 -8.01682708E-01
  9.30441081E-14  4.89587786E-15  9.22813033E-01 -1.66636749E+00 -7.11484292E-01
  1.76269769E+00 -5.24213125E-02  5.51266729E-01 -1.81086197E-13 -7.62376103E-01
 -1.01860112E-15 -9.26535541E-01  2.40352370E-13  8.44192212E-01  1.48425982E-15
 -1.64606567E+00  2.85143403E-14  3.84124262E-01 -5.04986521E-16 -7.11484292E-01
  1.76269769E+00 -1.53292428E-14  7.18340502E-15  2.57067958E-16  2.02403613E-15
 -2.21515961E-14 -3.51014448E-15 -9.90480604E-01 -4.73232565E-15  5.51372712E-14
  9.21873220E-15  1.43164296E+00  9.88270274E-15 -2.93837223E-14 -7.16421935E-15
 -6.48615961E-01  3.07778942E-14 -2.47077728E-14 -6.06789172E-01  2.88654648E-01
 -1.28965192E-14  8.19671773E-15 -7.96688248E-01  3.28333093E-13  3.17026556E-14
  1.09805620E-13  1.74650354E+00 -6.15152368E-13 -4.58372529E-14 -6.98924640E-14
 -7.93898262E-01  2.69619568E-13  1.97470611E-14  6.06789172E-01 -2.88654648E-01
  7.83173225E-01 -7.84853499E-01  5.04118380E-02 -2.02279149E-01 -2.45556902E-13
 -6.64176090E-01  6.95867142E-15  7.23945578E-03  6.16551689E-13  1.42462479E+00
 -1.05039181E-14  7.06076343E-01 -3.50717127E-13 -8.68336397E-01  4.53392529E-15
  7.83173225E-01 -7.84853499E-01 -5.05031444E-01  1.93634733E-02  5.38451824E-02
 -1.68038424E+00  1.42200211E-14 -1.20347541E-01 -3.15872610E-15  2.64895820E+00
 -1.65671210E-14 -2.02054744E-01  4.41433857E-15 -8.99382741E-01 -2.99019172E-14
 -2.56683384E-02 -2.02685593E-15 -5.05031444E-01  1.93634733E-02
Total SCF Density                          R   N=         153
  2.16229757E-01  6.41382497E-02  3.55741208E-02 -4.04827695E-02  3.03191292E-02
  2.08420452E+00  8.43725879E-02 -6.10367393E-02 -1.82912086E-01  5.11471044E-01
  2.67450037E-01  1.10992606E-01  1.89047710E-15 -9.12438928E-16  5.18268731E-01
 -1.85433306E-01 -6.49737906E-02 -3.76318527E-02  9.80089203E-02 -7.95048945E-17
  6.51513619E-01  4.99085543E-16 -3.07737768E-15 -4.59785924E-16 -2.46878344E-16
  3.78209255E-15 -3.76902871E-16  8.20400398E-01  6.56556479E-02 -7.25651199E-02
 -2.59984760E-01  5.49717970E-01  2.32794990E-15  1.84975110E-01 -6.44734326E-16
  6.02818665E-01  1.41094104E-01  5.85544968E-02 -3.29876079E-15  1.72358133E-15
  2.73414292E-01  1.66512410E-15  2.68143838E-15  3.86903492E-15  1.44240566E-01
 -1.23577120E-01 -4.51110324E-02 -2.46028324E-02  7.65848860E-02 -1.23873908E-15
  4.42099678E-01 -1.22204634E-16  1.35966888E-01  5.36539178E-16  3.00211651E-01
  4.47600940E-16 -2.24024204E-15  7.80481888E-16  8.00702799E-17  2.84186625E-15
 -2.23308735E-16  5.95733225E-01 -2.27065251E-16  1.99750723E-15 -4.67362597E-17
  4.32591300E-01  6.76399717E-03 -6.73802139E-03 -2.24846130E-02  5.21970620E-02
  9.92357954E-15  1.58629516E-02  1.46497558E-15  5.69564613E-02  5.47871655E-15
  1.17663276E-02  1.08799530E-15  5.38827549E-03  1.84715630E-03  7.66575670E-04
 -1.23500316E-15  6.65554706E-15  3.57944745E-03  2.87334430E-15 -3.59346133E-15
  7.34149095E-15  1.88834871E-03  2.07054918E-15 -2.60873005E-15  7.61049832E-16
  2.47216227E-05 -2.19813290E-02 -6.75270049E-03 -5.04466904E-04  5.85572589E-03
 -4.14744722E-15  7.31105356E-02  5.99291974E-16  1.52954008E-02 -2.01987385E-15
  4.95107338E-02  4.39348575E-16  1.26086676E-03  2.30425318E-16  8.25919956E-03
 -5.80087979E-17 -4.52899749E-16 -8.43774043E-16  2.02163320E-17  2.49567239E-16
  1.00718779E-17  1.04047347E-01  3.60979219E-18  2.18685270E-16  2.29204596E-17
  7.55539144E-02  1.92939856E-16 -4.57330199E-16  8.13407809E-17  1.31958132E-02
 -5.98028014E-02 -5.04161299E-02 -4.04827695E-02  8.43725879E-02 -2.67450037E-01
 -1.85433306E-01  5.52211449E-17  6.56556479E-02 -1.41094104E-01 -1.23577120E-01
  2.67222454E-17  6.76399717E-03 -1.84715630E-03 -2.19813290E-02  1.23178873E-16
  2.16229757E-01 -5.04161299E-02 -1.19663068E-02  3.03191292E-02 -6.10367393E-02
 -1.10992606E-01 -6.49737906E-02  1.84575316E-15 -7.25651199E-02 -5.85544968E-02
 -4.51110324E-02  1.29378072E-15 -6.73802139E-03 -7.66575670E-04 -6.75270049E-03
  2.70032000E-16  6.41382497E-02  3.55741208E-02
Mulliken Charges                           R   N=           3
  4.55334201E-01 -9.10668402E-01  4.55334201E-01
ONIOM Charges                              I   N=          16
           0           0           0           0           0           0
           0           0           0           0           0           0
           0           0           0           0
ONIOM Multiplicities                       I   N=          16
           1           0           0           0           0           0
           0           0           0           0           0           0
           0           0           0           0
Atom Layers                                I   N=           3
           1           1           1
Atom Modifiers                             I   N=           3
           0           0           0
Force Field                                I                0
Int Atom Modified Types                    I   N=           3
           0           0           0
Link Atoms                                 I   N=           3
           0           0           0
Atom Modified MM Charges                   R   N=           3
  0.00000000E+00  0.00000000E+00  0.00000000E+00
Link Distances                             R   N=          12
  0.00000000E+00  0.00000000E+00  0.00000000E+00  0.00000000E+00  0.00000000E+00
  0.00000000E+00  0.00000000E+00  0.00000000E+00  0.00000000E+00  0.00000000E+00
  0.00000000E+00  0.00000000E+00
Cartesian Gradient                         R   N=           9
  4.95056783E-03 -9.09642388E-03  1.33769318E-16 -1.12171557E-15  1.81928478E-02
  1.21948547E-16 -4.95056783E-03 -9.09642388E-03 -2.55717865E-16
Cartesian Force Constants                  R   N=          45
  4.08508070E-01 -2.24505525E-01  2.02365092E-01  3.46388938E-16 -3.35972129E-16
  6.01350857E-03 -3.75980425E-01  2.59716990E-01 -5.45700399E-16  7.51960849E-01
  1.89294060E-01 -2.17740505E-01  4.16575964E-16 -6.49524089E-10  4.35481011E-01
 -5.21024520E-16  2.60204348E-16 -8.68483339E-03  9.21803938E-16 -7.76271083E-17
  1.73696647E-02 -3.25276448E-02 -3.52114651E-02  1.99311461E-16 -3.75980424E-01
 -1.89294059E-01 -4.00779418E-16  4.08508069E-01  3.52114649E-02  1.53754137E-02
 -8.06038343E-17 -2.59716989E-01 -2.17740506E-01 -1.82577239E-16  2.24505524E-01
  2.02365092E-01  1.74635582E-16  7.57677818E-17  2.67132482E-03 -3.76103539E-16
 -3.38948855E-16 -8.68483127E-03  2.01467957E-16  2.63181074E-16  6.01350645E-03
Dipole Moment                              R   N=           3
 -2.35922393E-16 -1.04360646E+00 -5.63190728E-16
Dipole Derivatives                         R   N=          27
  2.98437168E-01  1.01145424E-01  1.44380766E-15  1.41248494E-01  2.29079528E-01
 -1.74781739E-16  4.07524666E-15 -3.02932459E-15  4.98192851E-01 -5.96874335E-01
  5.37975022E-09 -3.48754418E-15 -3.54495981E-10 -4.58159051E-01  6.54564970E-16
 -7.93502089E-15  2.50427384E-16 -9.96385702E-01  2.98437168E-01 -1.01145429E-01
  2.04373653E-15 -1.41248494E-01  2.29079522E-01 -4.79783231E-16  3.85977423E-15
  2.77889721E-15  4.98192850E-01
Polarizability                             R   N=           6
  7.19497641E+00 -4.69549455E-14  5.01320251E+00 -2.83159313E-14  7.38611191E-15
  3.87254450E+00
Polarizability Derivatives                 R   N=          54
  5.31067372E+00 -2.58351139E+00  1.58725873E+00  9.62753299E-15  1.18139184E-15
  4.62273760E-02 -2.64085665E+00  2.56328690E+00 -2.95462642E+00  4.33507600E-15
  7.99027244E-15 -1.83031656E-01  2.79242947E-15  6.79158823E-15 -2.95624424E-15
  1.12150545E+00 -5.44522628E-01  2.06030900E-14  6.23166431E-08  5.16702281E+00
  6.13092857E-08  2.33873839E-15 -7.43780959E-16  5.60595249E-08  5.28171336E+00
  5.28992454E-08  5.90925291E+00 -7.79419243E-15 -9.00090936E-16  3.66063371E-01
  3.83811916E-15 -1.61573078E-14 -3.00368030E-15 -8.67075485E-08  1.08904525E+00
 -6.18207167E-15 -5.31067378E+00 -2.58351142E+00 -1.58725879E+00 -1.03906049E-14
 -4.37610880E-16 -4.62274320E-02 -2.64085671E+00 -2.56328695E+00 -2.95462649E+00
  3.45911642E-15 -5.51451501E-15 -1.83031716E-01 -6.63054862E-15  9.36571953E-15
  5.95992455E-15 -1.12150536E+00 -5.44522625E-01 -1.12696854E-14
HyperPolarizability                        R   N=          10
  6.50989302E-13 -1.65808669E+01  3.18015708E-13 -8.60903131E+00  2.21319602E-14
  6.70769216E-14  3.29370716E-14 -1.51717351E-14 -1.45986512E+00  1.39069906E-13
QEq coupling tensors                       R   N=          18
 -3.02888208E-01  3.48797070E-01  8.74844435E-03 -7.84832483E-16  8.07963295E-16
  2.94139764E-01 -1.73956532E+00 -6.10622664E-16 -1.00276366E-01  4.16540458E-14
  2.54513287E-16  1.83984169E+00 -3.02888208E-01 -3.48797070E-01  8.74844435E-03
 -7.28800681E-16 -7.14915531E-16  2.94139764E-01
