water_new                                                               
Freq      RHF                                                         6-31+G              
Number of atoms                            I                3
Info1-9                                    I   N=           9
          11          10           0           0           0         100
           6           1           2
Full Title                                 C   N=           1
water_new   
Route                                      C   N=           4
#p hf/6-31+G freq SCF(XQC) nosymmetry           
Charge                                     I                0
Multiplicity                               I                1
Number of electrons                        I               10
Number of alpha electrons                  I                5
Number of beta electrons                   I                5
Number of basis functions                  I               17
Number of independent functions            I               17
Number of point charges in /Mol/           I                0
Number of translation vectors              I                0
Atomic numbers                             I   N=           3
           1           8           1
Nuclear charges                            R   N=           3
  1.00000000E+00  8.00000000E+00  1.00000000E+00
Current cartesian coordinates              R   N=           9
  1.48084608E+00 -9.30463349E-01  0.00000000E+00 -2.64561657E-04  1.17559862E-01
  0.00000000E+00 -1.48058152E+00 -9.30274377E-01  0.00000000E+00
Number of symbols in /Mol/                 I                0
Force Field                                I                0
Atom Types                                 C   N=           3
                                    
Int Atom Types                             I   N=           3
           0           0           0
MM charges                                 R   N=           3
  0.00000000E+00  0.00000000E+00  0.00000000E+00
Integer atomic weights                     I   N=           3
           1          16           1
Real atomic weights                        R   N=           3
  1.00782504E+00  1.59949146E+01  1.00782504E+00
Atom fragment info                         I   N=           3
           0           0           0
Atom residue num                           I   N=           3
           0           0           0
Nuclear spins                              I   N=           3
           1           0           1
Nuclear ZEff                               R   N=           3
 -1.00000000E+00 -5.60000000E+00 -1.00000000E+00
Nuclear ZNuc                               R   N=           3
  1.00000000E+00  8.00000000E+00  1.00000000E+00
Nuclear QMom                               R   N=           3
  0.00000000E+00  0.00000000E+00  0.00000000E+00
Nuclear GFac                               R   N=           3
  2.79284600E+00  0.00000000E+00  2.79284600E+00
MicOpt                                     I   N=           3
          -1          -1          -1
Number of residues                         I                0
Number of secondary structures             I                0
Number of contracted shells                I                8
Number of primitive shells                 I               19
Pure/Cartesian d shells                    I                1
Pure/Cartesian f shells                    I                0
Highest angular momentum                   I                1
Largest degree of contraction              I                6
Shell types                                I   N=           8
           0           0           0          -1          -1          -1
           0           0
Number of primitives per shell             I   N=           8
           3           1           6           3           1           1
           3           1
Shell to atom map                          I   N=           8
           1           1           2           2           2           2
           3           3
Primitive exponents                        R   N=          19
  1.87311370E+01  2.82539436E+00  6.40121692E-01  1.61277759E-01  5.48467166E+03
  8.25234946E+02  1.88046958E+02  5.29645000E+01  1.68975704E+01  5.79963534E+00
  1.55396162E+01  3.59993359E+00  1.01376175E+00  2.70005823E-01  8.45000000E-02
  1.87311370E+01  2.82539436E+00  6.40121692E-01  1.61277759E-01
Contraction coefficients                   R   N=          19
  3.34946043E-02  2.34726953E-01  8.13757326E-01  1.00000000E+00  1.83107443E-03
  1.39501722E-02  6.84450781E-02  2.32714336E-01  4.70192898E-01  3.58520853E-01
 -1.10777550E-01 -1.48026263E-01  1.13076702E+00  1.00000000E+00  1.00000000E+00
  3.34946043E-02  2.34726953E-01  8.13757326E-01  1.00000000E+00
P(S=P) Contraction coefficients            R   N=          19
  0.00000000E+00  0.00000000E+00  0.00000000E+00  0.00000000E+00  0.00000000E+00
  0.00000000E+00  0.00000000E+00  0.00000000E+00  0.00000000E+00  0.00000000E+00
  7.08742682E-02  3.39752839E-01  7.27158577E-01  1.00000000E+00  1.00000000E+00
  0.00000000E+00  0.00000000E+00  0.00000000E+00  0.00000000E+00
Coordinates of each shell                  R   N=          24
  1.48084608E+00 -9.30463349E-01  0.00000000E+00  1.48084608E+00 -9.30463349E-01
  0.00000000E+00 -2.64561657E-04  1.17559862E-01  0.00000000E+00 -2.64561657E-04
  1.17559862E-01  0.00000000E+00 -2.64561657E-04  1.17559862E-01  0.00000000E+00
 -2.64561657E-04  1.17559862E-01  0.00000000E+00 -1.48058152E+00 -9.30274377E-01
  0.00000000E+00 -1.48058152E+00 -9.30274377E-01  0.00000000E+00
Num ILSW                                   I              100
ILSW                                       I   N=         100
           0           1           0           0           2           0
           0           0           0           0           0          -1
           5           0           0           0           2           0
           0           0           0           0           1           0
           1           1           0           0           0           0
           0           0      100000           0          -1           0
           0           0           0           0           0           0
           0           0           0           1           0           0
           0 -2000000000           1           0           0           0
           0           0           4          52           0           0
           0           0           0           0           0           0
           0           0           0           3           0           1
           0           0           0           0           0           0
           0           0           0           0           0           0
           0           0           0           0           0           0
           0           0           0           0           0           0
           0           0           0           0
Num RLSW                                   I               52
RLSW                                       R   N=          52
  1.00000000E+00  1.00000000E+00  1.00000000E+00  1.00000000E+00  1.00000000E+00
  0.00000000E+00  0.00000000E+00  1.00000000E+00  0.00000000E+00  0.00000000E+00
  0.00000000E+00  0.00000000E+00  1.00000000E+00  0.00000000E+00  0.00000000E+00
  0.00000000E+00  0.00000000E+00  1.00000000E+00  0.00000000E+00  0.00000000E+00
  0.00000000E+00  0.00000000E+00  1.00000000E+00  0.00000000E+00  0.00000000E+00
  0.00000000E+00  0.00000000E+00  1.00000000E+00  0.00000000E+00  0.00000000E+00
  0.00000000E+00  0.00000000E+00  1.00000000E+00  0.00000000E+00  0.00000000E+00
  0.00000000E+00  0.00000000E+00  0.00000000E+00  1.00000000E+00  1.00000000E+00
  0.00000000E+00  1.00000000E+00  0.00000000E+00  0.00000000E+00  0.00000000E+00
  0.00000000E+00  0.00000000E+00  0.00000000E+00  0.00000000E+00  0.00000000E+00
  0.00000000E+00  0.00000000E+00
MxBond                                     I                2
NBond                                      I   N=           3
           1           2           1
IBond                                      I   N=           6
           2           0           1           3           2           0
RBond                                      R   N=           6
  1.00000000E+00  0.00000000E+00  1.00000000E+00  1.00000000E+00  1.00000000E+00
  0.00000000E+00
Virial Ratio                               R      2.000829272524840E+00
SCF Energy                                 R     -7.599263668388554E+01
Total Energy                               R     -7.599263668388554E+01
RMS Force                                  R      7.782458135232382E-03
RMS Density                                R      6.759379575732545E-09
NImag                                      I                0
Job Status                                 I                1
Nuclear derivative order                   I                2
External E-field                           R   N=          35
  0.00000000E+00  0.00000000E+00  0.00000000E+00  0.00000000E+00  0.00000000E+00
  0.00000000E+00  0.00000000E+00  0.00000000E+00  0.00000000E+00  0.00000000E+00
  0.00000000E+00  0.00000000E+00  0.00000000E+00  0.00000000E+00  0.00000000E+00
  0.00000000E+00  0.00000000E+00  0.00000000E+00  0.00000000E+00  0.00000000E+00
  0.00000000E+00  0.00000000E+00  0.00000000E+00  0.00000000E+00  0.00000000E+00
  0.00000000E+00  0.00000000E+00  0.00000000E+00  0.00000000E+00  0.00000000E+00
  0.00000000E+00  0.00000000E+00  0.00000000E+00  0.00000000E+00  0.00000000E+00
IOpCl                                      I                0
IROHF                                      I                0
Alpha Orbital Energies                     R   N=          17
 -2.05781563E+01 -1.36608742E+00 -7.33628405E-01 -5.65708858E-01 -5.11562692E-01
  1.43223865E-01  2.20030229E-01  2.51970796E-01  2.59728289E-01  3.54278806E-01
  3.70260713E-01  1.30502921E+00  1.35979276E+00  1.40261993E+00  1.41570300E+00
  1.44300981E+00  1.74824227E+00
Alpha MO coefficients                      R   N=         289
  6.31400156E-05  1.98998725E-03  9.95780996E-01  2.21127516E-02 -4.07560109E-07
 -1.88193106E-03  2.42023061E-16 -8.36143166E-03  2.85512388E-07  1.43090786E-03
 -4.19269355E-16  3.11204436E-04  9.62236388E-07  4.94720630E-04  2.62203697E-16
  6.19072055E-05  1.99406790E-03  1.41022690E-01 -4.00402192E-02 -2.13353711E-01
  4.73087329E-01 -9.24784262E-05 -1.06490062E-01  4.01576011E-16  4.85053027E-01
 -1.46957211E-06 -6.24237056E-02 -3.56627916E-16  4.65759624E-02 -2.68317273E-05
 -1.70737061E-02  3.39470090E-16  1.41195469E-01 -4.01251090E-02  2.62648762E-01
  1.09067023E-01 -5.13727673E-05  9.79500227E-05  5.09077810E-01  2.02761809E-04
  3.01322081E-15  2.69263943E-04  2.68555881E-01  5.19552698E-05  1.95603669E-15
  1.58811128E-05  3.51602022E-03  2.13205375E-05  1.10767515E-15 -2.62758701E-01
 -1.09040575E-01 -1.38681802E-01 -6.56576122E-02 -7.07439012E-02  1.77334396E-01
 -1.51136917E-04  5.60685808E-01  1.63177771E-15  2.57119423E-01 -1.25761951E-04
  3.82277944E-01  9.62585072E-16  2.30612328E-02  3.70446633E-07  6.19001818E-02
  1.67563434E-16 -1.38566116E-01 -6.55199382E-02 -1.02852332E-15  9.14512114E-16
  2.08219998E-16 -4.27879165E-16 -5.97058045E-16 -1.15949275E-15  6.40476848E-01
 -1.16759731E-15  2.71663078E-16 -1.44561000E-16  4.65074517E-01 -3.30393806E-15
 -2.76976272E-15  5.43868683E-16  8.12155431E-02  2.03729361E-15  3.47953260E-15
  5.54994915E-02 -3.42263137E-01  6.65571957E-02 -8.70318950E-02 -1.15572609E-04
  1.76362487E-01 -1.51284491E-16 -7.54550260E-01 -2.68385986E-04  2.12594354E-01
 -1.64497415E-16  1.75093551E+00 -2.78266576E-04 -7.43583041E-01  3.55199886E-16
  5.54281574E-02 -3.43293108E-01  7.66406597E-03 -2.82047212E-01  2.82704755E-05
 -1.27905553E-05 -1.95389252E-01  4.35676292E-05 -1.22206186E-15 -4.57140076E-04
 -4.45028594E-01  1.17471333E-04 -4.35851743E-15 -4.97606635E-04  1.41669498E+00
  4.54048319E-04  1.12401077E-14 -7.55015326E-03  2.83158028E-01 -1.48446298E-16
  5.56339665E-15  7.58146089E-17 -1.26279132E-16  1.27805654E-15 -3.79748670E-16
 -2.07822778E-01 -8.54165066E-16  3.53065838E-15 -1.36532544E-15 -5.15392822E-01
  2.25418781E-15 -1.64598622E-14  2.71967575E-15  1.23392261E+00  1.00396716E-16
 -6.45653123E-15  3.52162543E-02  5.46345529E-01  5.43338119E-02 -6.90230734E-02
 -3.47371834E-05 -1.08156414E-01  2.91733196E-16 -7.11841069E-01 -2.01974677E-05
 -3.14936840E-01  1.74721897E-15  7.75480810E-02 -6.68429230E-04  1.31058851E+00
 -3.19211935E-15  3.51632712E-02  5.45485965E-01  1.07710859E-01  2.09502986E+00
  2.23947057E-04 -3.06561805E-04 -2.77355371E-01  1.18925398E-03  1.35806322E-16
 -3.72006780E-03 -7.69867939E-01  3.52809428E-03  1.24529064E-15 -1.69865811E-02
 -1.28817543E+00  4.51021552E-03 -2.35344509E-15 -1.06298208E-01 -2.06990576E+00
 -1.27386620E-01 -2.43775924E+00 -4.93019180E-02  5.89653174E-02 -1.47839207E-03
 -2.21733983E-01  4.37696009E-17  8.99686021E-01 -4.50097362E-03 -6.84150822E-01
  5.52571961E-16  3.16248013E+00 -6.77952736E-03 -8.97548115E-01 -1.08450836E-15
 -1.28484634E-01 -2.46181880E+00 -9.27378019E-01  1.67589657E+00 -2.78919728E-04
  2.86719552E-03  6.71662918E-01 -3.21259807E-03  9.26399468E-15 -4.83930864E-03
 -2.90059817E-01  3.48878679E-03 -1.27575148E-14 -8.36731015E-03 -8.02481527E-01
  2.36269592E-03  5.50447133E-15  9.19825256E-01 -1.65758735E+00 -7.05291161E-01
  1.75321222E+00 -5.23289658E-02  5.51134584E-01 -3.19152695E-03 -7.63664697E-01
  3.02049929E-14 -9.27086141E-01  9.96549985E-04  8.46873183E-01 -4.36918790E-14
 -1.64531529E+00  4.17276011E-03  3.83224622E-01  2.00500398E-14 -7.14813061E-01
  1.77037573E+00 -4.58419052E-14  7.08674262E-14 -5.81155787E-16  8.11375165E-15
 -2.76753818E-14 -3.50254557E-14 -9.90476377E-01 -2.01002293E-14  7.25363936E-14
  4.93041119E-14  1.43164721E+00 -4.39963303E-14 -4.18829871E-14 -2.26186242E-15
 -6.48619511E-01  2.38989743E-14  1.45167253E-14 -6.01795097E-01  2.83812834E-01
  2.07596609E-04 -2.12184450E-04 -7.97624756E-01 -3.04884710E-03  4.32272901E-14
 -1.50796808E-03  1.74660338E+00  6.89397321E-03 -6.18387903E-14  2.72021925E-03
 -7.92828450E-01 -3.68223781E-03  2.72784485E-14  6.08811108E-01 -2.89150754E-01
  7.86644625E-01 -7.87936899E-01  5.05408289E-02 -2.03776096E-01  4.11332808E-03
 -6.62728770E-01  1.64954631E-14  9.27245852E-03 -7.85519085E-03  1.42348394E+00
 -2.36730541E-14  7.08055533E-01  3.23043066E-03 -8.68985292E-01  1.09703841E-14
  7.82343631E-01 -7.86858714E-01 -5.05794023E-01  1.99632130E-02  5.38101982E-02
 -1.68030854E+00 -3.02578412E-04 -1.20257555E-01  4.00065096E-15  2.64930117E+00
  4.01435437E-04 -2.02835889E-01 -5.77177830E-15 -8.99119374E-01 -5.87964571E-04
 -2.55721526E-02  2.46418511E-15 -5.05129601E-01  1.84465985E-02
Orthonormal basis                          R   N=         289
  1.36598559E-01  1.98627263E-01  3.85311130E-02  1.49291883E-01 -1.13684007E-05
 -4.30319085E-02  0.00000000E+00  2.11238184E-01 -5.45394908E-06 -8.73281988E-02
  1.14241018E-24  2.01484313E-01  4.37253277E-06 -7.67674610E-02  5.13989355E-25
  1.36644845E-01  1.98658170E-01  1.95178417E-01  1.61012529E-01 -9.41560761E-06
 -2.61719101E-05  1.93819445E-01  1.07837086E-05 -4.05964036E-21 -1.19544994E-05
  3.35840502E-01 -6.39810487E-06 -6.51698445E-22  1.01931082E-05  2.83832522E-01
 -1.87309918E-05 -3.76194862E-22 -1.95147851E-01 -1.60932811E-01 -8.07495925E-02
 -3.42012323E-03  7.44727640E-02  1.74559846E-01  2.63583943E-05  2.87104411E-01
 -3.03925439E-19  1.86956045E-01  1.98112260E-05  4.20875267E-01 -2.99151811E-19
  1.54391489E-01  7.04664000E-06  3.51692232E-01 -2.34986408E-19 -8.07712091E-02
 -3.40070820E-03 -2.42786426E-16  4.89001104E-16 -1.09697989E-16  2.33703209E-17
 -1.92417093E-15 -7.74898064E-17  3.38496871E-01  1.36353972E-16 -1.52280790E-16
  1.65014298E-17  4.84301624E-01 -1.47899460E-16  1.15420556E-15  2.67509914E-17
  4.13451438E-01  5.74592083E-17 -3.77717214E-16 -3.77563569E-02 -1.37990684E-01
  8.35242964E-01  3.26978242E-01  1.59853431E-04 -2.13856500E-01  3.24116868E-16
  4.33881617E-02  8.02468220E-05 -9.55887428E-02 -4.63310035E-17 -2.11567233E-01
  3.48648863E-05 -3.51018454E-04 -1.42928962E-16 -3.75866591E-02 -1.37979668E-01
  5.82943215E-02 -1.88089441E-01 -9.58840404E-05  2.44133219E-06  8.67673931E-01
  1.26053102E-04  8.74038333E-16  2.98554338E-05  4.98920243E-02 -5.55011761E-05
  2.27281535E-15  7.60395598E-05 -5.18523569E-01 -2.10085251E-04  2.21782819E-15
 -5.86119178E-02  1.88184270E-01 -8.08902636E-02  1.10463306E-01  2.73968458E-01
 -1.12342278E-01 -2.79846146E-04  8.14660717E-01 -3.45741643E-15 -1.02376739E-01
 -9.26004470E-05 -3.29280901E-02  3.96708819E-16 -3.58392317E-02 -1.64509371E-05
 -5.92813747E-01  2.46978261E-15 -8.11654319E-02  1.10409513E-01 -2.92114080E-16
  4.08277641E-16  7.33619760E-16 -6.12081156E-16  3.29943578E-16  3.25332871E-15
  8.79966812E-01 -4.32508059E-16  8.92327632E-17 -1.01717822E-17 -6.66489147E-02
 -6.35824609E-17 -2.10365251E-16 -2.36143118E-15 -6.42367665E-01 -2.95641279E-16
  6.25811187E-16 -2.02874346E-02 -2.13036120E-01 -5.21745362E-01  8.92842264E-01
  2.49982426E-04  1.65399606E-01  3.43985858E-17  2.25334670E-01  1.34241585E-04
 -1.13021698E-01  8.93202370E-17 -4.64403525E-01  4.66804590E-04 -2.61570067E-01
  8.47380573E-18 -1.92567565E-02 -2.13105616E-01  7.66555583E-01 -4.53569852E-02
 -1.99504189E-04  6.86024235E-04 -5.12111962E-01  2.71894894E-04 -1.89440403E-17
  1.44529005E-04 -3.61335052E-04 -1.64059252E-04  7.87717098E-17 -7.93171537E-04
 -6.51759737E-01  3.77681470E-04  5.69356151E-17 -7.64654893E-01  4.45128359E-02
  8.36996513E-01 -1.95913664E-01  8.41044177E-02 -1.71702654E-01  9.29250156E-04
  4.73982713E-01  4.05766466E-16 -4.59819094E-02 -1.04171191E-04 -1.71662184E-01
  2.84033517E-16 -3.87894906E-01  6.58502336E-04  4.61646047E-01  1.17077257E-16
  8.38759291E-01 -1.95939451E-01 -5.00036208E-16 -4.66999425E-16 -1.58286433E-16
  2.92020068E-16 -3.50367271E-16  1.32610184E-16 -7.38595040E-01  2.74493770E-16
  1.00547429E-15 -6.97257789E-16  1.51411613E+00 -2.29794749E-16 -1.31436794E-16
  4.21430833E-16 -1.16888405E+00 -1.47748963E-16  5.49898540E-16  5.02388812E-01
 -5.60521133E-02  3.27974890E-02 -2.38077509E-01  7.27641734E-04 -6.19521229E-01
 -1.24108890E-16  1.96404875E-01 -1.62350211E-03  1.65181592E+00  9.51984914E-16
 -4.21874937E-01  6.58782986E-04 -1.04948915E+00 -3.62108790E-16  5.01779872E-01
 -5.65853719E-02 -5.62709835E-01 -2.57372162E-01  6.42472648E-05 -6.81572834E-04
 -6.24136385E-01 -3.74145323E-04  9.14826582E-16  4.73958526E-04  1.93618329E+00
  1.43958975E-03 -8.48650716E-16 -3.00701436E-04 -7.98477788E-01 -9.94003561E-04
  8.94763358E-16  5.63791817E-01  2.56960219E-01 -4.74804627E-01 -1.84658403E-01
  4.10290114E-03 -1.52277172E+00 -1.24766607E-04  7.62969039E-02  5.04217490E-16
  2.95380922E+00 -2.43503252E-04 -5.32186862E-01 -6.21411717E-16 -1.16036476E+00
  1.53666663E-03  4.67802942E-02 -4.41540193E-18 -4.76239291E-01 -1.81073296E-01
 -5.96557041E-01  2.67655941E+00 -1.05143935E-05 -1.29699915E-03  1.39278100E-01
  1.27721237E-04 -3.00134348E-16  2.70355436E-03 -3.65545303E-01 -4.87427294E-04
  1.38299710E-15 -2.30686753E-03 -1.87810332E+00  6.37825032E-04 -8.16065672E-16
  5.95199061E-01 -2.67480709E+00  4.70098631E-01 -3.15336511E+00  8.40285936E-04
 -2.56557646E-01  2.30250837E-04  1.38650129E-01  2.16955253E-17  1.07562429E+00
 -7.70245892E-04 -5.46120769E-01 -9.26080848E-16  3.88483150E+00 -7.23384047E-04
 -1.45492330E+00 -1.14777146E-16  4.70369354E-01 -3.15736384E+00
Total SCF Density                          R   N=         153
  2.16208835E-01  6.42107614E-02  3.56274333E-02 -4.04548838E-02  3.03271868E-02
  2.08420860E+00  8.43002336E-02 -6.10623723E-02 -1.82921623E-01  5.11496185E-01
  2.67433150E-01  1.11074453E-01  7.72810821E-06 -4.13939496E-05  5.18320496E-01
 -1.85442593E-01 -6.50620726E-02 -3.76381063E-02  9.80163705E-02  5.66600265E-05
  6.51424582E-01 -7.39558388E-17  1.58326132E-15  3.46182405E-16  4.21902158E-16
  2.30255628E-15  2.59355962E-16  8.20421186E-01  6.56317831E-02 -7.25814965E-02
 -2.60007326E-01  5.49767382E-01  1.06725057E-04  1.85051350E-01 -2.69367899E-16
  6.02913646E-01  1.41106207E-01  5.85978140E-02 -8.60344248E-06  6.62842501E-06
  2.73431718E-01 -3.18082152E-05  1.96601269E-15  7.85227346E-05  1.44244554E-01
 -1.23608833E-01 -4.51829681E-02 -2.46012713E-02  7.65816209E-02 -5.11095444E-05
  4.41965280E-01  1.01327932E-15  1.36000653E-01 -6.80619646E-05  3.00070392E-01
 -2.96803006E-16  1.17779892E-15 -6.25544523E-16 -4.12184016E-16  1.43597212E-15
  7.92404610E-17  5.95738921E-01 -9.28943011E-16  1.30305616E-15  6.45014263E-16
  4.32588612E-01  6.74856996E-03 -6.75341166E-03 -2.25174107E-02  5.22618612E-02
  5.83839936E-07  1.59392928E-02 -4.11927614E-15  5.70374093E-02  2.59276545E-06
  1.18176053E-02 -3.06217740E-15  5.40247567E-03  1.83928632E-03  7.69067594E-04
  1.29519815E-05 -2.45247706E-05  3.57986059E-03  7.55224043E-06 -3.52676857E-15
 -2.39617394E-05  1.88849580E-03  4.00120414E-06 -2.56251814E-15 -2.37006560E-06
  2.47262383E-05 -2.19731553E-02 -6.75454668E-03 -4.87378940E-04  5.82123803E-03
  6.15431540E-06  7.30476135E-02  8.85340447E-16  1.52599107E-02 -4.06739929E-06
  4.94591745E-02  6.36893797E-16  1.26484901E-03  1.11297444E-06  8.24677830E-03
  4.64097939E-16  3.42021878E-16  3.87339919E-16  3.22939724E-16  1.03069124E-15
 -7.32748808E-17  1.04033350E-01  2.22047235E-16  6.39028887E-16  6.31139255E-17
  7.55425589E-02 -4.97113137E-16 -4.42123938E-16  9.78002375E-17  1.31919289E-02
 -5.97697606E-02 -5.04275266E-02 -4.04934503E-02  8.44017617E-02 -2.67513479E-01
 -1.85562725E-01  6.87392001E-16  6.55759621E-02 -1.41096351E-01 -1.23596555E-01
  4.99531611E-16  6.75331157E-03 -1.85540939E-03 -2.19871385E-02 -2.01724241E-16
  2.16357736E-01 -5.04227478E-02 -1.19605237E-02  3.03744672E-02 -6.11364110E-02
 -1.10993050E-01 -6.49780723E-02  3.55490419E-15 -7.27105766E-02 -5.85503766E-02
 -4.50897624E-02  2.71071949E-15 -6.76189449E-03 -7.64669188E-04 -6.74390013E-03
  2.75466851E-16  6.41296863E-02  3.55934201E-02
Grdnt Energy                               R     -7.599263668388554E+01
Grdnt NVar                                 I                0
Grdnt IGetFC                               I                4
Mulliken Charges                           R   N=           3
  4.55257664E-01 -9.10552893E-01  4.55295229E-01
ONIOM Charges                              I   N=          16
           0           0           0           0           0           0
           0           0           0           0           0           0
           0           0           0           0
ONIOM Multiplicities                       I   N=          16
           1           0           0           0           0           0
           0           0           0           0           0           0
           0           0           0           0
Atom Layers                                I   N=           3
           1           1           1
Atom Modifiers                             I   N=           3
           0           0           0
Force Field                                I                0
Atom Modified Types                        C   N=           3
                                    
Int Atom Modified Types                    I   N=           3
           0           0           0
Link Atoms                                 I   N=           3
           0           0           0
Atom Modified MM Charges                   R   N=           3
  0.00000000E+00  0.00000000E+00  0.00000000E+00
Link Distances                             R   N=          12
  0.00000000E+00  0.00000000E+00  0.00000000E+00  0.00000000E+00  0.00000000E+00
  0.00000000E+00  0.00000000E+00  0.00000000E+00  0.00000000E+00  0.00000000E+00
  0.00000000E+00  0.00000000E+00
Cartesian Gradient                         R   N=           9
  4.99493734E-03 -9.23493478E-03  1.21287960E-16 -3.47488376E-04  1.82282156E-02
  2.72069782E-16 -4.64744896E-03 -8.99328079E-03 -3.93357742E-16
Cartesian Force Constants                  R   N=          45
  4.08102778E-01 -2.24248541E-01  2.02331720E-01  1.81657564E-16 -2.28860231E-16
  6.09161301E-03 -3.75487449E-01  2.59463150E-01 -3.28189339E-16  7.51870836E-01
  1.89016973E-01 -2.17709492E-01  2.89044221E-16  8.76442481E-04  4.35897228E-01
 -2.95678885E-16  1.56572267E-16 -8.81225746E-03  3.33329311E-16 -1.67098979E-16
  1.73944982E-02 -3.26153293E-02 -3.52146083E-02  1.46531775E-16 -3.76383387E-01
 -1.89893415E-01 -3.76504260E-17  4.08998717E-01  3.52315687E-02  1.53777721E-02
 -6.01839898E-17 -2.60339592E-01 -2.18187736E-01  1.05267128E-17  2.25108023E-01
  2.02809964E-01  1.14021322E-16  7.22879648E-17  2.72064445E-03 -5.13997269E-18
 -1.21945242E-16 -8.58224073E-03 -1.08881349E-16  4.96572770E-17  5.86159628E-03
Nonadiabatic coupling                      R   N=           9
  0.00000000E+00  0.00000000E+00  0.00000000E+00  0.00000000E+00  0.00000000E+00
  0.00000000E+00  0.00000000E+00  0.00000000E+00  0.00000000E+00
Dipole Moment                              R   N=           3
  2.10032405E-04 -1.04395813E+00  2.23332314E-15
Dipole Derivatives                         R   N=          27
  2.98292101E-01  1.01125685E-01  7.81764998E-16  1.41544124E-01  2.28896414E-01
  2.80502343E-16  1.66523907E-15 -1.07424978E-15  4.98042938E-01 -5.96595804E-01
 -1.28467272E-05 -2.57518415E-15 -2.73182853E-04 -4.57795672E-01  1.80900723E-16
 -5.33972188E-15 -1.93596841E-15 -9.96211009E-01  2.98303703E-01 -1.01112839E-01
  1.79341915E-15 -1.41270941E-01  2.28899258E-01 -4.61403065E-16  3.67448281E-15
  3.01021820E-15  4.98168071E-01
Polarizability                             R   N=           6
  7.19225315E+00 -2.53590280E-03  5.01471435E+00 -1.98319845E-14 -1.11113221E-15
  3.87269244E+00
Polarizability Derivatives                 R   N=          54
  5.31085272E+00 -2.58526663E+00  1.58668349E+00  8.04014745E-15 -2.03844014E-15
  4.62391174E-02 -2.63998226E+00  2.56608661E+00 -2.95896218E+00 -2.64291510E-16
  3.93089199E-15 -1.82831963E-01  8.28910981E-15  2.74051202E-15  5.81633695E-17
  1.12204093E+00 -5.45604704E-01 -9.13321292E-15 -5.48458092E-03  5.16904635E+00
 -1.36852071E-04 -7.41583546E-15 -7.91642188E-16  9.83807460E-05  5.28024597E+00
 -3.34314354E-03  5.91578528E+00 -3.17795851E-15 -1.52607492E-15  3.65825578E-01
 -3.01297377E-15 -7.08759630E-15 -3.51467718E-15 -2.21776217E-03  1.08978892E+00
  2.35424058E-14 -5.30536814E+00 -2.58377972E+00 -1.58654664E+00 -5.45873837E-15
  2.83008233E-15 -4.63374981E-02 -2.64026371E+00 -2.56274347E+00 -2.95682310E+00
  3.44225002E-15 -7.23924346E-15 -1.82993614E-01 -5.27613604E-15  4.34708427E-15
  3.45651381E-15 -1.11982317E+00 -5.44184220E-01 -2.40780456E-14
HyperPolarizability                        R   N=          10
  2.04998187E-02 -1.65815108E+01  6.46210860E-03 -8.60855501E+00 -5.46171093E-15
  4.12294179E-14 -4.94099695E-14 -6.41873788E-03 -1.45546531E+00 -4.30336474E-13
Quadrupole Moment                          R   N=           6
  1.46347498E+00 -2.41750908E-01 -1.22172407E+00 -8.20167624E-05  3.88381786E-15
  3.85304176E-16
QEq coupling tensors                       R   N=          18
 -3.02507164E-01  3.48545996E-01  8.57773603E-03 -6.36935334E-16  5.09839024E-16
  2.93929428E-01 -1.73880665E+00  5.27740965E-04 -1.01333905E-01  2.55049001E-14
  9.92314253E-17  1.84014055E+00 -3.03080610E-01 -3.49528663E-01  8.44660286E-03
 -3.38910285E-16 -4.24032730E-16  2.94634007E-01
Number of Normal Modes                     I                3
Vib-LE2Fix                                 I               14
Vib-NDFDPol                                I                0
Vib-NumROA                                 I                0
Vib-NDim                                   I                3
Vib-NDim0                                  I                3
Vib-LFlags                                 I                8
Vib-IFlags                                 I   N=          24
           0           0           1           0           0           0
           0           0           0           0           2           0
           0           0           0           0           0           0
           3           0           0           0           0           0
Vib-AtMass                                 R   N=           3
  1.00782504E+00  1.59949146E+01  1.00782504E+00
Vib-E2                                     R   N=          42
  1.77151078E+03  3.85525997E+03  3.98363889E+03  1.08999145E+00  1.03845973E+00
  1.08667369E+00  2.01539833E+00  9.09383774E+00  1.01603643E+01  1.30332554E+02
  3.61344719E+00  6.60982362E+01  6.29906896E+00  9.28482022E+01  4.48672973E+01
  4.41195269E-01  1.47892026E-01  7.49142859E-01  6.12262999E-01  2.57675848E-01
  8.56582817E-01  0.00000000E+00  0.00000000E+00  0.00000000E+00  0.00000000E+00
  0.00000000E+00  0.00000000E+00  1.00000000E+02  1.00000000E+02  1.00000000E+02
  0.00000000E+00  0.00000000E+00  0.00000000E+00  0.00000000E+00  0.00000000E+00
  0.00000000E+00  0.00000000E+00  0.00000000E+00  0.00000000E+00  0.00000000E+00
  0.00000000E+00  0.00000000E+00
Vib-Modes                                  R   N=          27
  3.89669053E-01  5.87549840E-01  0.00000000E+00  2.99262715E-05 -7.40437633E-02
  0.00000000E+00 -3.90144005E-01  5.87578412E-01  0.00000000E+00  6.20564803E-01
 -3.67092858E-01  0.00000000E+00 -1.52890066E-03  4.51855608E-02  0.00000000E+00
 -5.96300041E-01 -3.50034780E-01  0.00000000E+00  5.62235851E-01 -3.99255310E-01
 -0.00000000E+00 -7.25263732E-02 -1.01500119E-03 -0.00000000E+00  5.88810319E-01
  4.15364116E-01 -0.00000000E+00
ClPar MaxAn                                I              200
ClPar NIntPar                              I                4
ClPar NRealPar                             I               16
ClPar NBits                                I               30
ClPar LenBitVec                            I                1
ClPar Read BitMap                          I   N=         200
           0           0           0           0           0           0