untitled_0                                                              
Freq      RHF                                                         6-31+G              
Number of atoms                            I                3
Info1-9                                    I   N=           9
          11          10           0           0           0         100
           6           1           2
Charge                                     I                0
Multiplicity                               I                1
Number of electrons                        I               10
Number of alpha electrons                  I                5
Number of beta electrons                   I                5
Number of basis functions                  I               17
Number of independent functions            I               17
Number of point charges in /Mol/           I                0
Number of translation vectors              I                0
Atomic numbers                             I   N=           3
           1           8           1
Nuclear charges                            R   N=           3
  1.00000000E+00  8.00000000E+00  1.00000000E+00
Current cartesian coordinates              R   N=           9
  0.00000000E+00  1.73205078E+00 -8.00000041E-01  0.00000000E+00  3.42113883E-49
  2.00000010E-01 -2.12115045E-16 -1.73205078E+00 -8.00000041E-01
Force Field                                I                0
Int Atom Types                             I   N=           3
           0           0           0
MM charges                                 R   N=           3
  0.00000000E+00  0.00000000E+00  0.00000000E+00
Integer atomic weights                     I   N=           3
           1          16           1
Real atomic weights                        R   N=           3
  1.00782504E+00  1.59949146E+01  1.00782504E+00
Atom fragment info                         I   N=           3
           0           0           0
Atom residue num                           I   N=           3
           0           0           0
Nuclear spins                              I   N=           3
           1           0           1
Nuclear ZEff                               R   N=           3
 -1.00000000E+00 -5.60000000E+00 -1.00000000E+00
Nuclear ZNuc                               R   N=           3
  1.00000000E+00  8.00000000E+00  1.00000000E+00
Nuclear QMom                               R   N=           3
  0.00000000E+00  0.00000000E+00  0.00000000E+00
Nuclear GFac                               R   N=           3
  2.79284600E+00  0.00000000E+00  2.79284600E+00
MicOpt                                     I   N=           3
          -1          -1          -1
Number of contracted shells                I                8
Number of primitive shells                 I               19
Pure/Cartesian d shells                    I                1
Pure/Cartesian f shells                    I                0
Highest angular momentum                   I                1
Largest degree of contraction              I                6
Shell types                                I   N=           8
           0           0           0          -1          -1          -1
           0           0
Number of primitives per shell             I   N=           8
           3           1           6           3           1           1
           3           1
Shell to atom map                          I   N=           8
           1           1           2           2           2           2
           3           3
Primitive exponents                        R   N=          19
  1.87311370E+01  2.82539436E+00  6.40121692E-01  1.61277759E-01  5.48467166E+03
  8.25234946E+02  1.88046958E+02  5.29645000E+01  1.68975704E+01  5.79963534E+00
  1.55396162E+01  3.59993359E+00  1.01376175E+00  2.70005823E-01  8.45000000E-02
  1.87311370E+01  2.82539436E+00  6.40121692E-01  1.61277759E-01
Contraction coefficients                   R   N=          19
  3.34946043E-02  2.34726953E-01  8.13757326E-01  1.00000000E+00  1.83107443E-03
  1.39501722E-02  6.84450781E-02  2.32714336E-01  4.70192898E-01  3.58520853E-01
 -1.10777550E-01 -1.48026263E-01  1.13076702E+00  1.00000000E+00  1.00000000E+00
  3.34946043E-02  2.34726953E-01  8.13757326E-01  1.00000000E+00
P(S=P) Contraction coefficients            R   N=          19
  0.00000000E+00  0.00000000E+00  0.00000000E+00  0.00000000E+00  0.00000000E+00
  0.00000000E+00  0.00000000E+00  0.00000000E+00  0.00000000E+00  0.00000000E+00
  7.08742682E-02  3.39752839E-01  7.27158577E-01  1.00000000E+00  1.00000000E+00
  0.00000000E+00  0.00000000E+00  0.00000000E+00  0.00000000E+00
Coordinates of each shell                  R   N=          24
  0.00000000E+00  1.73205078E+00 -8.00000041E-01  0.00000000E+00  1.73205078E+00
 -8.00000041E-01  0.00000000E+00  3.76325291E-49  2.00000010E-01  0.00000000E+00
  3.76325291E-49  2.00000010E-01  0.00000000E+00  3.76325291E-49  2.00000010E-01
  0.00000000E+00  3.76325291E-49  2.00000010E-01 -2.12115045E-16 -1.73205078E+00
 -8.00000041E-01 -2.12115045E-16 -1.73205078E+00 -8.00000041E-01
Constraint Structure                       R   N=           9
  0.00000000E+00  1.73205078E+00 -8.00000041E-01  0.00000000E+00  3.76325291E-49
  2.00000010E-01 -2.12115045E-16 -1.73205078E+00 -8.00000041E-01
Num ILSW                                   I              100
ILSW                                       I   N=         100
           0           1           0           0           2           0
           0           0           0           0           0          -1
           0           0           0           0           2           0
           0           0           0           0           1           0
           1           0           0           0           0           0
           0           0      100000           0          -1           0
           0           0           0           0           0           0
           0           0           0           1           0           0
           0           0           1           0           0           0
           0           0           4          41           0           0
           0           0           0           0           0           0
           0           0           0           3           0           0
           0           0           0           0           0           0
           0           0           0           0           0           0
           0           0           0           0           0           0
           0           0           0           0           0           0
           0           0           0           0
Num RLSW                                   I               41
RLSW                                       R   N=          41
  1.00000000E+00  1.00000000E+00  1.00000000E+00  1.00000000E+00  1.00000000E+00
  0.00000000E+00  0.00000000E+00  1.00000000E+00  0.00000000E+00  0.00000000E+00
  0.00000000E+00  0.00000000E+00  1.00000000E+00  0.00000000E+00  0.00000000E+00
  0.00000000E+00  0.00000000E+00  1.00000000E+00  0.00000000E+00  0.00000000E+00
  0.00000000E+00  0.00000000E+00  1.00000000E+00  0.00000000E+00  0.00000000E+00
  0.00000000E+00  0.00000000E+00  1.00000000E+00  0.00000000E+00  0.00000000E+00
  0.00000000E+00  0.00000000E+00  1.00000000E+00  0.00000000E+00  0.00000000E+00
  0.00000000E+00  0.00000000E+00  0.00000000E+00  1.00000000E+00  1.00000000E+00
  0.00000000E+00
MxBond                                     I                2
NBond                                      I   N=           3
           1           2           1
IBond                                      I   N=           6
           2           0           1           3           2           0
RBond                                      R   N=           6
  1.00000000E+00  0.00000000E+00  1.00000000E+00  1.00000000E+00  1.00000000E+00
  0.00000000E+00
Virial Ratio                               R      2.005288052657490E+00
SCF Energy                                 R     -7.597088850192669E+01
Total Energy                               R     -7.597088850192669E+01
RMS Force                                  R      4.577181662769631E-02
RMS Density                                R      9.607821197702150E-09
External E-field                           R   N=          35
  0.00000000E+00  0.00000000E+00  0.00000000E+00  0.00000000E+00  0.00000000E+00
  0.00000000E+00  0.00000000E+00  0.00000000E+00  0.00000000E+00  0.00000000E+00
  0.00000000E+00  0.00000000E+00  0.00000000E+00  0.00000000E+00  0.00000000E+00
  0.00000000E+00  0.00000000E+00  0.00000000E+00  0.00000000E+00  0.00000000E+00
  0.00000000E+00  0.00000000E+00  0.00000000E+00  0.00000000E+00  0.00000000E+00
  0.00000000E+00  0.00000000E+00  0.00000000E+00  0.00000000E+00  0.00000000E+00
  0.00000000E+00  0.00000000E+00  0.00000000E+00  0.00000000E+00  0.00000000E+00
IOpCl                                      I                0
IROHF                                      I                0
Alpha Orbital Energies                     R   N=          17
 -2.05873684E+01 -1.31102524E+00 -6.92993597E-01 -5.32520155E-01 -5.00434197E-01
  1.42477070E-01  2.16971914E-01  2.52332762E-01  2.54301245E-01  3.21297368E-01
  3.33586864E-01  1.19892303E+00  1.23094917E+00  1.40796654E+00  1.44697612E+00
  1.54052623E+00  1.76451144E+00
Alpha MO coefficients                      R   N=         289
  3.17115148E-04  7.57484707E-04  9.95836734E-01  2.17481435E-02  0.00000000E+00
  0.00000000E+00 -1.63429313E-03 -7.72286761E-03  0.00000000E+00  0.00000000E+00
  1.12790993E-03  1.66337881E-03  0.00000000E+00  0.00000000E+00 -3.83266840E-05
  3.17115148E-04  7.57484707E-04  1.16428470E-01 -1.30821935E-02 -2.16425888E-01
  4.80175330E-01  0.00000000E+00  0.00000000E+00 -7.53406944E-02  5.09104778E-01
  0.00000000E+00  0.00000000E+00 -5.49095381E-02  2.01763986E-02  0.00000000E+00
  0.00000000E+00 -4.63099144E-03  1.16428470E-01 -1.30821935E-02  2.42852069E-01
  1.28589733E-01  0.00000000E+00  0.00000000E+00  0.00000000E+00  4.90025423E-01
  0.00000000E+00  0.00000000E+00  0.00000000E+00  2.95127142E-01  0.00000000E+00
  0.00000000E+00  0.00000000E+00 -4.27729456E-03  0.00000000E+00 -2.42852069E-01
 -1.28589733E-01 -1.31189761E-01 -7.67190762E-02 -6.01300792E-02  1.56194331E-01
  0.00000000E+00  0.00000000E+00  5.63879716E-01  2.12889860E-01  0.00000000E+00
  0.00000000E+00  4.00033819E-01  9.98447227E-03  0.00000000E+00  0.00000000E+00
  7.50528477E-02 -1.31189761E-01 -7.67190762E-02  0.00000000E+00  0.00000000E+00
  0.00000000E+00  0.00000000E+00  6.40310884E-01  0.00000000E+00  0.00000000E+00
  0.00000000E+00  4.61197415E-01  0.00000000E+00  0.00000000E+00  0.00000000E+00
  8.79948730E-02  0.00000000E+00  0.00000000E+00  0.00000000E+00  0.00000000E+00
  9.72571654E-02  1.23139390E-01  8.28154450E-02 -1.01046839E-01  0.00000000E+00
  0.00000000E+00  2.09850000E-01 -9.64650244E-01  0.00000000E+00  0.00000000E+00
  2.97254955E-01  1.19766994E+00  0.00000000E+00  0.00000000E+00 -4.03631727E-01
  9.72571654E-02  1.23139390E-01  2.79786703E-02 -1.54568983E-01  0.00000000E+00
  0.00000000E+00  0.00000000E+00 -2.39791729E-01  0.00000000E+00  0.00000000E+00
  0.00000000E+00 -5.31059206E-01  0.00000000E+00  0.00000000E+00  0.00000000E+00
  1.34700633E+00  0.00000000E+00 -2.79786703E-02  1.54568983E-01  6.22167424E-02
  8.89660014E-01  4.63018371E-02 -7.21946376E-02  0.00000000E+00  0.00000000E+00
 -9.75563762E-02 -5.33664526E-01  0.00000000E+00  0.00000000E+00 -2.74559267E-01
 -6.97241209E-01  0.00000000E+00  0.00000000E+00  1.46576978E+00  6.22167424E-02
  8.89660014E-01  0.00000000E+00  0.00000000E+00  0.00000000E+00  0.00000000E+00
 -2.10750992E-01  0.00000000E+00  0.00000000E+00  0.00000000E+00 -5.18138550E-01
  0.00000000E+00  0.00000000E+00  0.00000000E+00  1.23368708E+00  0.00000000E+00
  0.00000000E+00  0.00000000E+00  0.00000000E+00 -1.28401973E-01 -1.81052461E+00
 -1.65989207E-02  4.45237664E-02  0.00000000E+00  0.00000000E+00 -2.03048894E-01
  1.65646019E-01  0.00000000E+00  0.00000000E+00 -5.46435133E-01  2.84883752E+00
  0.00000000E+00  0.00000000E+00 -4.09047033E-01 -1.28401973E-01 -1.81052461E+00
  1.08632927E-01  1.93014340E+00  0.00000000E+00  0.00000000E+00  0.00000000E+00
 -2.73983402E-01  0.00000000E+00  0.00000000E+00  0.00000000E+00 -6.66037740E-01
  0.00000000E+00  0.00000000E+00  0.00000000E+00 -1.51761464E+00  0.00000000E+00
 -1.08632927E-01 -1.93014340E+00 -8.58888145E-01  1.76001489E+00 -6.08575952E-02
  5.35374579E-01  0.00000000E+00  0.00000000E+00 -4.53296216E-01 -7.98017257E-01
  0.00000000E+00  0.00000000E+00  3.85434867E-01 -1.55788963E+00  0.00000000E+00
  0.00000000E+00  4.78202337E-01 -8.58888145E-01  1.76001489E+00 -7.63052320E-01
  1.53329770E+00  0.00000000E+00  0.00000000E+00  0.00000000E+00  7.65617080E-01
  0.00000000E+00  0.00000000E+00  0.00000000E+00 -6.56902558E-01  0.00000000E+00
  0.00000000E+00  0.00000000E+00 -6.88811783E-01  0.00000000E+00  7.63052320E-01
 -1.53329770E+00  0.00000000E+00  0.00000000E+00  0.00000000E+00  0.00000000E+00
 -9.89964820E-01  0.00000000E+00  0.00000000E+00  0.00000000E+00  1.43191033E+00
  0.00000000E+00  0.00000000E+00  0.00000000E+00 -6.48183090E-01  0.00000000E+00
  0.00000000E+00  0.00000000E+00  0.00000000E+00  4.50675454E-01 -4.06865957E-01
  2.65230011E-02 -1.10736006E-01  0.00000000E+00  0.00000000E+00 -9.04995493E-01
  3.89719192E-02  0.00000000E+00  0.00000000E+00  1.48252136E+00  3.16599477E-01
  0.00000000E+00  0.00000000E+00 -7.61584685E-01  4.50675454E-01 -4.06865957E-01
 -8.16759723E-01  6.83293479E-01  0.00000000E+00  0.00000000E+00  0.00000000E+00
 -7.10684625E-01  0.00000000E+00  0.00000000E+00  0.00000000E+00  1.62969957E+00
  0.00000000E+00  0.00000000E+00  0.00000000E+00 -9.79835658E-01  0.00000000E+00
  8.16759723E-01 -6.83293479E-01 -5.11880907E-01  3.43495742E-01  5.96503115E-02
 -1.67069426E+00  0.00000000E+00  0.00000000E+00 -4.48182853E-02  2.43566900E+00
  0.00000000E+00  0.00000000E+00 -1.45261317E-01 -1.22680326E+00  0.00000000E+00
  0.00000000E+00  1.12816897E-01 -5.11880907E-01  3.43495742E-01
Total SCF Density                          R   N=         153
  1.79487140E-01  7.95402808E-02  4.51857072E-02 -3.39877786E-02  1.63975612E-02
  2.08429318E+00  7.08437570E-02 -3.64967151E-02 -1.83313499E-01  5.10875998E-01
 -3.08148791E-33 -1.54074396E-33  0.00000000E+00  0.00000000E+00  8.19996056E-01
  2.38007376E-01  1.26024476E-01  0.00000000E+00  0.00000000E+00  6.16297582E-33
  4.80249831E-01 -1.65495131E-01 -8.45518947E-02 -3.84558889E-02  1.03725059E-01
  0.00000000E+00  1.10721472E-48  6.47278451E-01  6.26857425E-02 -4.59975412E-02
 -2.61350506E-01  5.55087572E-01  0.00000000E+00  2.79509054E-49  1.63401176E-01
  6.09138820E-01 -1.54074396E-33 -1.15555797E-33  0.00000000E+00  0.00000000E+00
  5.90619449E-01  3.08148791E-33 -3.02955833E-65  0.00000000E+00  4.25406111E-01
  1.43344474E-01  7.59006406E-02  0.00000000E+00  0.00000000E+00  3.08148791E-33
  2.89239605E-01 -5.44240864E-49  0.00000000E+00  4.62223187E-33  1.74200060E-01
 -1.17746034E-01 -5.99420670E-02 -2.20940111E-02  7.22826786E-02  0.00000000E+00
  7.85856239E-49  4.59412072E-01  1.14399450E-01  0.00000000E+00  5.57794059E-49
  3.26086772E-01  2.07954833E-03 -2.05738211E-03 -6.62121675E-03  2.25678045E-02
  0.00000000E+00  1.40513666E-50  8.21443812E-03  2.47692956E-02  0.00000000E+00
  9.88067996E-51  5.77625198E-03  1.01908715E-03  3.61111865E-35  1.20370622E-35
  0.00000000E+00  0.00000000E+00  1.12688150E-01  1.54074396E-33  4.39075623E-67
  0.00000000E+00  8.11660159E-02  1.15555797E-33  2.64441654E-67  0.00000000E+00
  1.54861954E-02 -2.07749967E-03 -1.10003233E-03  0.00000000E+00  0.00000000E+00
  1.54074396E-33 -4.19196615E-03  7.88771399E-51  0.00000000E+00  1.15555797E-33
 -2.52469144E-03  4.75052595E-51  0.00000000E+00  1.92592994E-34  3.65904975E-05
 -2.07707131E-02 -1.13948613E-02 -7.09766873E-03  1.89966160E-02  0.00000000E+00
  1.45979115E-49  8.53394865E-02  2.72412527E-02  0.00000000E+00  1.03584967E-49
  6.05558394E-02  1.31172519E-03  0.00000000E+00  1.93444104E-50  1.13087550E-02
 -5.64213699E-02 -4.53728499E-02 -3.39877786E-02  7.08437570E-02  3.08148791E-33
 -2.38007376E-01 -1.65495131E-01  6.26857425E-02  1.54074396E-33 -1.43344474E-01
 -1.17746034E-01  2.07954833E-03 -3.61111865E-35  2.07749967E-03 -2.07707131E-02
  1.79487140E-01 -4.53728499E-02 -2.09555703E-02  1.63975612E-02 -3.64967151E-02
  1.54074396E-33 -1.26024476E-01 -8.45518947E-02 -4.59975412E-02  1.15555797E-33
 -7.59006406E-02 -5.99420670E-02 -2.05738211E-03 -1.20370622E-35  1.10003233E-03
 -1.13948613E-02  7.95402808E-02  4.51857072E-02
Mulliken Charges                           R   N=           3
  4.53799094E-01 -9.07598188E-01  4.53799094E-01
ONIOM Charges                              I   N=          16
           0           0           0           0           0           0
           0           0           0           0           0           0
           0           0           0           0
ONIOM Multiplicities                       I   N=          16
           1           0           0           0           0           0
           0           0           0           0           0           0
           0           0           0           0
Atom Layers                                I   N=           3
           1           1           1
Atom Modifiers                             I   N=           3
           0           0           0
Force Field                                I                0
Int Atom Modified Types                    I   N=           3
           0           0           0
Link Atoms                                 I   N=           3
           0           0           0
Atom Modified MM Charges                   R   N=           3
  0.00000000E+00  0.00000000E+00  0.00000000E+00
Link Distances                             R   N=          12
  0.00000000E+00  0.00000000E+00  0.00000000E+00  0.00000000E+00  0.00000000E+00
  0.00000000E+00  0.00000000E+00  0.00000000E+00  0.00000000E+00  0.00000000E+00
  0.00000000E+00  0.00000000E+00
Cartesian Gradient                         R   N=           9
  2.49445566E-17  8.22250994E-02 -2.98149818E-02  7.36633212E-16 -5.31259065E-18
  5.96299636E-02 -7.61577769E-16 -8.22250994E-02 -2.98149818E-02
Cartesian Force Constants                  R   N=          45
  3.86438325E-02 -1.37462870E-17  2.21921127E-01  6.93143642E-18 -8.15721308E-02
  1.19826814E-01 -2.98149809E-02 -6.19731000E-17  3.46357468E-17  5.96299617E-02
  1.44082468E-17 -2.14055201E-01  1.06371147E-01 -7.23166682E-16  4.28110402E-01
 -1.04346133E-17  5.67731143E-02 -1.30767529E-01 -4.81460603E-16  1.46496562E-10
  2.61535059E-01 -8.82885163E-03  2.88926713E-17 -1.69467514E-17 -2.98149809E-02
  7.09163075E-16  4.07998290E-16  3.86438325E-02  3.77705223E-17 -7.86592651E-03
 -2.47990164E-02  7.00285141E-16 -2.14055201E-01 -5.67731144E-02 -6.91633587E-16
  2.21921127E-01  2.13092654E-17  2.47990164E-02  1.09407148E-02  3.69742201E-16
 -1.06371147E-01 -1.30767529E-01 -3.31774973E-16  8.15721308E-02  1.19826814E-01
Dipole Moment                              R   N=           3
 -8.92880962E-17  0.00000000E+00 -9.67515303E-01
Dipole Derivatives                         R   N=          27
  4.83757637E-01  1.15034813E-16  2.07557958E-16  1.54817924E-17  3.04178433E-01
  1.15013653E-01 -1.48824364E-17  1.03680103E-01  2.36635061E-01 -9.67515274E-01
  1.77059015E-15  1.31080652E-16 -3.72349420E-16 -6.08356881E-01  1.02616005E-09
 -1.69359281E-16 -1.10117296E-08 -4.73270120E-01  4.83757637E-01 -8.11104695E-16
 -2.37676587E-16  2.32995501E-16  3.04178433E-01 -1.15013653E-01  1.22053791E-16
 -1.03680103E-01  2.36635061E-01
Polarizability                             R   N=           6
  3.87058206E+00  4.50022711E-16  1.01237322E+01  2.77693872E-16 -3.87764907E-16
  5.59561970E+00
Polarizability Derivatives                 R   N=          54
 -7.34193321E-16  1.80512884E+00  2.12680425E-15 -8.62518724E-01  6.99015638E-16
  1.16756370E-15  1.29651930E-02  7.00368620E-17  7.65624932E+00  2.54678441E-17
 -2.79973980E+00  1.77651060E+00 -1.05717721E-01 -5.38977991E-17 -3.47224917E+00
  3.95612884E-17  2.92358414E+00 -2.80392757E+00  8.73122380E-15 -7.74302046E-17
  2.99770286E-14  1.72503745E+00  1.10665782E-14  2.16912277E-15 -1.08020962E-08
  3.78647341E-16  1.07665329E-08 -3.67267763E-17  5.59947954E+00 -4.75018159E-09
  2.11435431E-01  2.41898160E-17  6.94449835E+00  3.85264838E-16 -3.65572586E-08
  5.60785513E+00 -9.17173997E-15 -1.80512884E+00 -2.15093351E-14 -8.62518724E-01
 -7.41436387E-15 -3.50600120E-15 -1.29651930E-02 -7.81259035E-17 -7.65624932E+00
  7.46372103E-17 -2.79973980E+00 -1.77651060E+00 -1.05717721E-01  2.23712342E-16
 -3.47224917E+00 -6.65647342E-17 -2.92358414E+00 -2.80392757E+00
HyperPolarizability                        R   N=          10
  7.48214340E-15 -5.02255693E-16 -2.49866368E-15  1.01412625E-15 -1.38640581E+00
 -2.40038451E-15 -2.55957515E+01 -8.56280999E-17  1.57502581E-15 -1.11862343E+01
QEq coupling tensors                       R   N=          18
  1.60524345E-01 -1.86330649E-18 -1.91395282E-01  2.02572052E-19  1.73656124E-01
  3.08709369E-02  1.97054056E+00  4.36671685E-17 -1.99874436E+00  3.25966041E-17
  5.47382213E-48  2.82038062E-02  1.60524345E-01 -7.25073660E-17 -1.91395282E-01
 -4.16571205E-17 -1.73656124E-01  3.08709369E-02
