untitled_0                                                              
Freq      RHF                                                         6-31+G              
Number of atoms                            I                3
Info1-9                                    I   N=           9
          13          10           0           0           0         100
           6           1           2
Charge                                     I                0
Multiplicity                               I                1
Number of electrons                        I               10
Number of alpha electrons                  I                5
Number of beta electrons                   I                5
Number of basis functions                  I               17
Number of independent functions            I               17
Number of point charges in /Mol/           I                0
Number of translation vectors              I                0
Atomic numbers                             I   N=           3
           1           8           1
Nuclear charges                            R   N=           3
  1.00000000E+00  8.00000000E+00  1.00000000E+00
Current cartesian coordinates              R   N=           9
  2.12467974E-16  1.39988706E+00 -7.29795862E-01  1.11717771E-17  1.11717771E-17
  1.82448966E-01 -4.73278911E-16 -1.39988706E+00 -7.29795862E-01
Force Field                                I                0
Int Atom Types                             I   N=           3
           0           0           0
MM charges                                 R   N=           3
  0.00000000E+00  0.00000000E+00  0.00000000E+00
Integer atomic weights                     I   N=           3
           1          16           1
Real atomic weights                        R   N=           3
  1.00782504E+00  1.59949146E+01  1.00782504E+00
Atom fragment info                         I   N=           3
           0           0           0
Atom residue num                           I   N=           3
           0           0           0
Nuclear spins                              I   N=           3
           1           0           1
Nuclear ZEff                               R   N=           3
 -1.00000000E+00 -5.60000000E+00 -1.00000000E+00
Nuclear ZNuc                               R   N=           3
  1.00000000E+00  8.00000000E+00  1.00000000E+00
Nuclear QMom                               R   N=           3
  0.00000000E+00  0.00000000E+00  0.00000000E+00
Nuclear GFac                               R   N=           3
  2.79284600E+00  0.00000000E+00  2.79284600E+00
MicOpt                                     I   N=           3
          -1          -1          -1
Number of contracted shells                I                8
Number of primitive shells                 I               19
Pure/Cartesian d shells                    I                1
Pure/Cartesian f shells                    I                0
Highest angular momentum                   I                1
Largest degree of contraction              I                6
Shell types                                I   N=           8
           0           0           0          -1          -1          -1
           0           0
Number of primitives per shell             I   N=           8
           3           1           6           3           1           1
           3           1
Shell to atom map                          I   N=           8
           1           1           2           2           2           2
           3           3
Primitive exponents                        R   N=          19
  1.87311370E+01  2.82539436E+00  6.40121692E-01  1.61277759E-01  5.48467166E+03
  8.25234946E+02  1.88046958E+02  5.29645000E+01  1.68975704E+01  5.79963534E+00
  1.55396162E+01  3.59993359E+00  1.01376175E+00  2.70005823E-01  8.45000000E-02
  1.87311370E+01  2.82539436E+00  6.40121692E-01  1.61277759E-01
Contraction coefficients                   R   N=          19
  3.34946043E-02  2.34726953E-01  8.13757326E-01  1.00000000E+00  1.83107443E-03
  1.39501722E-02  6.84450781E-02  2.32714336E-01  4.70192898E-01  3.58520853E-01
 -1.10777550E-01 -1.48026263E-01  1.13076702E+00  1.00000000E+00  1.00000000E+00
  3.34946043E-02  2.34726953E-01  8.13757326E-01  1.00000000E+00
P(S=P) Contraction coefficients            R   N=          19
  0.00000000E+00  0.00000000E+00  0.00000000E+00  0.00000000E+00  0.00000000E+00
  0.00000000E+00  0.00000000E+00  0.00000000E+00  0.00000000E+00  0.00000000E+00
  7.08742682E-02  3.39752839E-01  7.27158577E-01  1.00000000E+00  1.00000000E+00
  0.00000000E+00  0.00000000E+00  0.00000000E+00  0.00000000E+00
Coordinates of each shell                  R   N=          24
  0.00000000E+00  1.39988706E+00 -7.29795862E-01  0.00000000E+00  1.39988706E+00
 -7.29795862E-01  5.62214282E-34 -1.12442856E-33  1.82448966E-01  5.62214282E-34
 -1.12442856E-33  1.82448966E-01  5.62214282E-34 -1.12442856E-33  1.82448966E-01
  5.62214282E-34 -1.12442856E-33  1.82448966E-01 -1.71436721E-16 -1.39988706E+00
 -7.29795862E-01 -1.71436721E-16 -1.39988706E+00 -7.29795862E-01
Constraint Structure                       R   N=           9
  0.00000000E+00  1.39988706E+00 -7.29795862E-01  5.62214282E-34 -1.12442856E-33
  1.82448966E-01 -1.71436721E-16 -1.39988706E+00 -7.29795862E-01
Num ILSW                                   I              100
ILSW                                       I   N=         100
           0           1           0           0           2           0
           0           0           0           0           0          -1
           0           0           0           0           2           0
           0           0           0           0           1           0
           1           0           0           0           0           0
           0           0      100000           0          -1           0
           0           0           0           0           0           0
           0           0           0           1           0           0
           0           0           1           0           0           0
           0           0           4          41           0           0
           0           0           0           0           0           0
           0           0           0           3           0           0
           0           0           0           0           0           0
           0           0           0           0           0           0
           0           0           0           0           0           0
           0           0           0           0           0           0
           0           0           0           0
Num RLSW                                   I               41
RLSW                                       R   N=          41
  1.00000000E+00  1.00000000E+00  1.00000000E+00  1.00000000E+00  1.00000000E+00
  0.00000000E+00  0.00000000E+00  1.00000000E+00  0.00000000E+00  0.00000000E+00
  0.00000000E+00  0.00000000E+00  1.00000000E+00  0.00000000E+00  0.00000000E+00
  0.00000000E+00  0.00000000E+00  1.00000000E+00  0.00000000E+00  0.00000000E+00
  0.00000000E+00  0.00000000E+00  1.00000000E+00  0.00000000E+00  0.00000000E+00
  0.00000000E+00  0.00000000E+00  1.00000000E+00  0.00000000E+00  0.00000000E+00
  0.00000000E+00  0.00000000E+00  1.00000000E+00  0.00000000E+00  0.00000000E+00
  0.00000000E+00  0.00000000E+00  0.00000000E+00  1.00000000E+00  1.00000000E+00
  0.00000000E+00
MxBond                                     I                2
NBond                                      I   N=           3
           1           2           1
IBond                                      I   N=           6
           2           0           1           3           2           0
RBond                                      R   N=           6
  1.00000000E+00  0.00000000E+00  1.00000000E+00  1.00000000E+00  1.00000000E+00
  0.00000000E+00
Virial Ratio                               R      1.996324574457125E+00
SCF Energy                                 R     -7.598276816991029E+01
Total Energy                               R     -7.598276816991029E+01
RMS Force                                  R      5.297963589381204E-02
RMS Density                                R      3.313643873271404E-09
External E-field                           R   N=          35
  0.00000000E+00  0.00000000E+00  0.00000000E+00  0.00000000E+00  0.00000000E+00
  0.00000000E+00  0.00000000E+00  0.00000000E+00  0.00000000E+00  0.00000000E+00
  0.00000000E+00  0.00000000E+00  0.00000000E+00  0.00000000E+00  0.00000000E+00
  0.00000000E+00  0.00000000E+00  0.00000000E+00  0.00000000E+00  0.00000000E+00
  0.00000000E+00  0.00000000E+00  0.00000000E+00  0.00000000E+00  0.00000000E+00
  0.00000000E+00  0.00000000E+00  0.00000000E+00  0.00000000E+00  0.00000000E+00
  0.00000000E+00  0.00000000E+00  0.00000000E+00  0.00000000E+00  0.00000000E+00
IOpCl                                      I                0
IROHF                                      I                0
Alpha Orbital Energies                     R   N=          17
 -2.05614255E+01 -1.40515140E+00 -7.88939430E-01 -5.69009079E-01 -5.15967509E-01
  1.43990002E-01  2.14170417E-01  2.50878842E-01  2.61380850E-01  3.92495042E-01
  3.93728615E-01  1.35958847E+00  1.39084962E+00  1.40235269E+00  1.43671188E+00
  1.47331920E+00  1.72465122E+00
Alpha MO coefficients                      R   N=         289
 -2.11920019E-04  2.76482189E-03  9.95709385E-01  2.25300770E-02  0.00000000E+00
  0.00000000E+00 -1.96906238E-03 -8.88688103E-03  0.00000000E+00  0.00000000E+00
  1.44216478E-03 -4.67265618E-04  0.00000000E+00  0.00000000E+00  7.00303239E-04
 -2.11920019E-04  2.76482189E-03  1.60513421E-01 -5.42939046E-02 -2.12769409E-01
  4.70946981E-01  0.00000000E+00  0.00000000E+00 -1.19157184E-01  4.61058026E-01
  0.00000000E+00  0.00000000E+00 -5.53205245E-02  6.04992504E-02  0.00000000E+00
  0.00000000E+00 -2.15611954E-02  1.60513421E-01 -5.42939046E-02  2.78501210E-01
  8.39771317E-02  0.00000000E+00  0.00000000E+00  0.00000000E+00  5.20415487E-01
  0.00000000E+00  0.00000000E+00  0.00000000E+00  2.38068313E-01  0.00000000E+00
  0.00000000E+00  0.00000000E+00  1.07607070E-02  0.00000000E+00 -2.78501210E-01
 -8.39771317E-02 -1.28760924E-01 -4.34187461E-02 -7.01198684E-02  1.72793727E-01
  0.00000000E+00  0.00000000E+00  5.73958311E-01  2.61512910E-01  0.00000000E+00
  0.00000000E+00  3.89105165E-01  1.74619846E-02  0.00000000E+00  0.00000000E+00
  6.40650405E-02 -1.28760924E-01 -4.34187461E-02  0.00000000E+00  0.00000000E+00
  0.00000000E+00  0.00000000E+00  6.39385018E-01  0.00000000E+00  0.00000000E+00
  0.00000000E+00  4.68301944E-01  0.00000000E+00  0.00000000E+00  0.00000000E+00
  7.77243350E-02  0.00000000E+00  0.00000000E+00  0.00000000E+00  0.00000000E+00
  3.69444408E-02 -5.24086157E-01  5.96545671E-02 -9.02308621E-02  0.00000000E+00
  0.00000000E+00  1.45559893E-01 -6.10399710E-01  0.00000000E+00  0.00000000E+00
  1.47716938E-01  1.95172220E+00  0.00000000E+00  0.00000000E+00 -8.02515783E-01
  3.69444408E-02 -5.24086157E-01 -3.87708956E-04 -4.36044546E-01  0.00000000E+00
  0.00000000E+00  0.00000000E+00 -1.69035394E-01  0.00000000E+00  0.00000000E+00
  0.00000000E+00 -3.56422042E-01  0.00000000E+00  0.00000000E+00  0.00000000E+00
  1.49242932E+00  0.00000000E+00  3.87708956E-04  4.36044546E-01  0.00000000E+00
  0.00000000E+00  0.00000000E+00  0.00000000E+00 -2.05986616E-01  0.00000000E+00
  0.00000000E+00  0.00000000E+00 -5.15224392E-01  0.00000000E+00  0.00000000E+00
  0.00000000E+00  1.23443612E+00  0.00000000E+00  0.00000000E+00  0.00000000E+00
  0.00000000E+00  2.80035286E-02  3.70985991E-01  5.28055854E-02 -6.35843866E-02
  0.00000000E+00  0.00000000E+00 -1.24582584E-01 -7.06065663E-01  0.00000000E+00
  0.00000000E+00 -3.58538913E-01  3.39179184E-01  0.00000000E+00  0.00000000E+00
  1.21031113E+00  2.80035286E-02  3.70985991E-01  9.27969930E-02  2.42963964E+00
  0.00000000E+00  0.00000000E+00  0.00000000E+00 -2.66749709E-01  0.00000000E+00
  0.00000000E+00  0.00000000E+00 -9.24409080E-01  0.00000000E+00  0.00000000E+00
  0.00000000E+00 -1.34854769E+00  0.00000000E+00 -9.27969930E-02 -2.42963964E+00
 -1.28057306E-01 -2.65031703E+00 -6.41421856E-02  5.75764464E-02  0.00000000E+00
  0.00000000E+00 -2.01007398E-01  1.35426267E+00  0.00000000E+00  0.00000000E+00
 -6.91791043E-01  3.15219781E+00  0.00000000E+00  0.00000000E+00 -8.57821784E-01
 -1.28057306E-01 -2.65031703E+00 -7.61876972E-01  3.84589949E-01  0.00000000E+00
  0.00000000E+00  0.00000000E+00 -6.10931939E-01  0.00000000E+00  0.00000000E+00
  0.00000000E+00  1.79021057E+00  0.00000000E+00  0.00000000E+00  0.00000000E+00
 -8.42870669E-01  0.00000000E+00  7.61876972E-01 -3.84589949E-01  4.32595369E-01
  1.64089454E-01  2.00041071E-02  2.22014342E-01  0.00000000E+00  0.00000000E+00
 -8.92705146E-01 -7.98984402E-01  0.00000000E+00  0.00000000E+00  1.67865926E+00
 -5.81633905E-02  0.00000000E+00  0.00000000E+00 -5.88437712E-01  4.32595369E-01
  1.64089454E-01  0.00000000E+00  0.00000000E+00  0.00000000E+00  0.00000000E+00
 -9.91564757E-01  0.00000000E+00  0.00000000E+00  0.00000000E+00  1.43065542E+00
  0.00000000E+00  0.00000000E+00  0.00000000E+00 -6.48069925E-01  0.00000000E+00
  0.00000000E+00  0.00000000E+00  0.00000000E+00 -8.48276668E-01  1.67072791E+00
  0.00000000E+00  0.00000000E+00  0.00000000E+00  8.61366807E-01  0.00000000E+00
  0.00000000E+00  0.00000000E+00 -5.60117348E-01  0.00000000E+00  0.00000000E+00
  0.00000000E+00 -6.97565341E-01  0.00000000E+00  8.48276668E-01 -1.67072791E+00
  1.07818960E+00 -1.85578278E+00  6.47122841E-02 -3.94145327E-01  0.00000000E+00
  0.00000000E+00  4.62706053E-01  4.22477938E-01  0.00000000E+00  0.00000000E+00
 -9.71242992E-02  1.87965445E+00  0.00000000E+00  0.00000000E+00 -6.13655373E-01
  1.07818960E+00 -1.85578278E+00 -2.92220496E-01 -4.69827095E-01  6.24980154E-02
 -1.73524091E+00  0.00000000E+00  0.00000000E+00 -1.69728807E-01  2.86126820E+00
  0.00000000E+00  0.00000000E+00 -8.17513520E-02 -4.25934707E-01  0.00000000E+00
  0.00000000E+00 -2.51687543E-01 -2.92220496E-01 -4.69827095E-01
Total SCF Density                          R   N=         153
  2.39813805E-01  4.05257686E-02  2.37856369E-02 -5.06693152E-02  3.46991158E-02
  2.08324959E+00  1.06678914E-01 -6.60194915E-02 -1.79771950E-01  5.04312670E-01
 -3.08148791E-33 -1.15555797E-33  0.00000000E+00  0.00000000E+00  8.17626401E-01
  2.89872685E-01  8.74059998E-02  0.00000000E+00  0.00000000E+00  3.08148791E-33
  5.41664559E-01 -1.86058625E-01 -3.69129711E-02 -3.37069832E-02  8.60306333E-02
  0.00000000E+00  2.11778618E-33  6.87260909E-01  8.06704816E-02 -7.28235476E-02
 -2.50570091E-01  5.24242907E-01  0.00000000E+00  5.86571275E-34  1.90353262E-01
  5.62084965E-01 -1.54074396E-33 -3.85185989E-34  0.00000000E+00  0.00000000E+00
  5.98850494E-01  3.08148791E-33 -1.84535056E-33  0.00000000E+00  4.38613422E-01
  1.32604626E-01  3.99845881E-02  0.00000000E+00  0.00000000E+00  3.08148791E-33
  2.47788874E-01  1.52711684E-33  0.00000000E+00  4.62223187E-33  1.13353043E-01
 -1.17963065E-01 -2.77738075E-02 -2.81550212E-02  8.24287791E-02  0.00000000E+00
  1.41698611E-33  4.59838283E-01  1.52474471E-01  0.00000000E+00  9.51965720E-34
  3.08930539E-01  1.49252389E-02 -8.08841982E-03 -2.91241652E-02  6.29974663E-02
  0.00000000E+00  1.73453932E-35  5.62890193E-03  6.49287038E-02  0.00000000E+00
  2.12439270E-35  6.89404847E-03  7.93059707E-03 -7.22223729E-35 -2.40741243E-35
  0.00000000E+00  0.00000000E+00  9.93915507E-02  1.54074396E-33 -3.06273862E-34
  0.00000000E+00  7.27969145E-02  7.70371978E-34 -2.24322812E-34  0.00000000E+00
  1.20821445E-02  5.99373981E-03  1.80730661E-03  0.00000000E+00  0.00000000E+00
  1.54074396E-33  1.12000771E-02  6.90258045E-35  0.00000000E+00  7.70371978E-34
  5.12356671E-03  3.15764177E-35  0.00000000E+00  1.92592994E-34  2.31585629E-04
 -2.34201669E-02 -3.21809206E-03  1.58525821E-03  1.86327023E-03  0.00000000E+00
  2.42441946E-34  7.86769097E-02  1.36132989E-02  0.00000000E+00  1.60988174E-34
  5.22436494E-02 -3.72121276E-04  0.00000000E+00  2.81629814E-35  9.13940998E-03
 -7.04378897E-02 -5.30251624E-02 -5.06693152E-02  1.06678914E-01  3.08148791E-33
 -2.89872685E-01 -1.86058625E-01  8.06704816E-02  1.54074396E-33 -1.32604626E-01
 -1.17963065E-01  1.49252389E-02  7.22223729E-35 -5.99373981E-03 -2.34201669E-02
  2.39813805E-01 -5.30251624E-02 -4.42299761E-03  3.46991158E-02 -6.60194915E-02
  1.15555797E-33 -8.74059998E-02 -3.69129711E-02 -7.28235476E-02  3.85185989E-34
 -3.99845881E-02 -2.77738075E-02 -8.08841982E-03  2.40741243E-35 -1.80730661E-03
 -3.21809206E-03  4.05257686E-02  2.37856369E-02
Mulliken Charges                           R   N=           3
  4.61576260E-01 -9.23152520E-01  4.61576260E-01
Optimization MaxStp                        I                2
Optimization Job offset                    I                0
Optimization Num results per geometry      I                2
Optimization Num geometry variables        I                9
Opt point       1 Results for each geome   R   N=           2
 -7.63861166E+01  0.00000000E+00
Opt point       1 Geometries               R   N=           9
 -2.46519033E-32  1.49468496E+00 -8.64101765E-01  4.62223187E-33  2.42989702E-33
  2.16025441E-01 -1.83046115E-16 -1.49468496E+00 -8.64101765E-01
Opt point       1 Gradient at each geome   R   N=           9
  1.81772279E-17 -2.48120565E-05 -3.76042315E-06  7.23020433E-16 -1.98625838E-16
  7.52084631E-06 -7.41197661E-16  2.48120565E-05 -3.76042315E-06
Optimization Number of geometries          I   N=           1
           1
ONIOM Charges                              I   N=          16
           0           0           0           0           0           0
           0           0           0           0           0           0
           0           0           0           0
ONIOM Multiplicities                       I   N=          16
           1           0           0           0           0           0
           0           0           0           0           0           0
           0           0           0           0
Atom Layers                                I   N=           3
           1           1           1
Atom Modifiers                             I   N=           3
           0           0           0
Force Field                                I                0
Int Atom Modified Types                    I   N=           3
           0           0           0
Link Atoms                                 I   N=           3
           0           0           0
Atom Modified MM Charges                   R   N=           3
  0.00000000E+00  0.00000000E+00  0.00000000E+00
Link Distances                             R   N=          12
  0.00000000E+00  0.00000000E+00  0.00000000E+00  0.00000000E+00  0.00000000E+00
  0.00000000E+00  0.00000000E+00  0.00000000E+00  0.00000000E+00  0.00000000E+00
  0.00000000E+00  0.00000000E+00
Cartesian Gradient                         R   N=           9
  2.45996258E-17 -7.79481021E-02  4.67435613E-02  8.67662952E-16 -2.60977627E-16
 -9.34871225E-02 -8.92262578E-16  7.79481021E-02  4.67435613E-02
Cartesian Force Constants                  R   N=          45
 -5.34609277E-02 -1.49075818E-17  6.80316257E-01  9.40405788E-18 -4.13702696E-01
  2.60222254E-01  5.12401486E-02 -1.05880332E-16  1.08530716E-16 -1.02480297E-01
  3.49662148E-17 -6.47995581E-01  4.55661171E-01 -6.30195580E-16  1.29599116E+00
 -5.50443149E-18  3.71744220E-01 -2.79191871E-01 -6.18562520E-16  1.02351129E-09
  5.58383741E-01  2.22077915E-03  4.27249579E-17 -4.85786521E-17  5.12401486E-02
  6.67671676E-16  5.06653277E-16 -5.34609277E-02  4.74527474E-17 -3.23206759E-02
 -4.19584752E-02  6.62943877E-16 -6.47995582E-01 -3.71744221E-01 -7.04775980E-16
  6.80316257E-01  5.23074783E-17  4.19584752E-02  1.89696165E-02  4.05766731E-16
 -4.55661171E-01 -2.79191870E-01 -4.10016657E-16  4.13702696E-01  2.60222254E-01
Dipole Moment                              R   N=           3
 -6.81152815E-17  2.35922393E-16 -9.91566999E-01
Dipole Derivatives                         R   N=          27
  5.43476359E-01  1.53856966E-16  2.24338092E-16  2.34609510E-17  3.42387709E-01
  1.00978875E-01 -9.90357023E-18  1.31040633E-01  2.78373870E-01 -1.08695272E+00
  2.40805086E-15  2.52976952E-16 -4.43219476E-16 -6.84775419E-01 -4.65521181E-09
 -2.40248969E-16 -2.41888679E-09 -5.56747744E-01  5.43476359E-01 -1.13123705E-15
 -3.17576162E-16  2.64927560E-16  3.42387709E-01 -1.00978875E-01  1.57254572E-16
 -1.31040633E-01  2.78373870E-01
Polarizability                             R   N=           6
  3.80129451E+00  1.42658991E-16  5.77687830E+00  1.47909698E-16 -7.77372958E-17
  4.07728037E+00
Polarizability Derivatives                 R   N=          54
 -1.22018303E-15  7.05622379E-01  2.83993458E-15 -1.51267283E-01  6.19381992E-16
  1.32667547E-15  1.08518778E-01 -1.62243766E-17  4.23349620E+00  2.72815114E-17
 -2.04257039E+00  1.49346735E+00 -2.53710706E-01  2.05848752E-17 -2.14004067E+00
  2.73035782E-17  1.93810149E+00 -2.11391352E+00  1.48420323E-14  5.67167360E-16
  2.16892692E-14  3.02534566E-01  1.09239686E-14  1.74141066E-15 -3.97340361E-08
  3.49963384E-16 -2.86987466E-08 -3.54673758E-16  4.08514078E+00 -3.57244241E-08
  5.07421379E-01 -1.18009253E-16  4.28008132E+00  6.31255030E-17 -1.02402901E-08
  4.22782701E+00 -1.38946574E-14 -7.05622379E-01 -1.66989355E-14 -1.51267283E-01
 -6.43110315E-15 -3.06976706E-15 -1.08518778E-01  9.34929175E-18 -4.23349620E+00
  1.00410593E-16 -2.04257039E+00 -1.49346735E+00 -2.53710706E-01  1.99602053E-16
 -2.14004067E+00  4.10073810E-17 -1.93810149E+00 -2.11391352E+00
HyperPolarizability                        R   N=          10
  6.51020715E-15  1.25492182E-15 -6.11989450E-16 -3.43242769E-15 -2.75522747E+00
 -1.06283415E-15 -9.49583630E+00 -7.44228596E-17 -9.28366395E-16 -6.34202030E+00
QEq coupling tensors                       R   N=          18
  4.60910052E-01 -1.37259634E-18 -5.13458198E-01  4.20301582E-19  5.51961828E-01
  5.25481460E-02  1.63027292E+00  7.28563718E-17 -1.72979775E+00  4.49127725E-17
  1.23259516E-32  9.95248285E-02  4.60910052E-01 -1.70294003E-16 -5.13458198E-01
 -1.09446446E-16 -5.51961828E-01  5.25481460E-02
