6
	Energy:  -87102.9775554
C         -1.62284       -0.00003        0.00003
H         -1.70771        0.86727        0.62602
H         -1.70759        0.10849       -1.06411
H         -1.70643       -0.97596        0.43802
F          1.57981        0.00004       -0.00002
H          0.64049        0.00005       -0.00000
