untitled_0                                                              
Freq      RHF                                                         6-31+G              
Number of atoms                            I                3
Info1-9                                    I   N=           9
          13          10           0           0           0         100
           6           1           2
Charge                                     I                0
Multiplicity                               I                1
Number of electrons                        I               10
Number of alpha electrons                  I                5
Number of beta electrons                   I                5
Number of basis functions                  I               17
Number of independent functions            I               17
Number of point charges in /Mol/           I                0
Number of translation vectors              I                0
Atomic numbers                             I   N=           3
           1           8           1
Nuclear charges                            R   N=           3
  1.00000000E+00  8.00000000E+00  1.00000000E+00
Current cartesian coordinates              R   N=           9
  0.00000000E+00  1.48124293E+00 -8.37919685E-01  0.00000000E+00  3.42113883E-49
  2.09479921E-01 -1.81399942E-16 -1.48124293E+00 -8.37919685E-01
Force Field                                I                0
Int Atom Types                             I   N=           3
           0           0           0
MM charges                                 R   N=           3
  0.00000000E+00  0.00000000E+00  0.00000000E+00
Integer atomic weights                     I   N=           3
           1          16           1
Real atomic weights                        R   N=           3
  1.00782504E+00  1.59949146E+01  1.00782504E+00
Atom fragment info                         I   N=           3
           0           0           0
Atom residue num                           I   N=           3
           0           0           0
Nuclear spins                              I   N=           3
           1           0           1
Nuclear ZEff                               R   N=           3
 -1.00000000E+00 -5.60000000E+00 -1.00000000E+00
Nuclear ZNuc                               R   N=           3
  1.00000000E+00  8.00000000E+00  1.00000000E+00
Nuclear QMom                               R   N=           3
  0.00000000E+00  0.00000000E+00  0.00000000E+00
Nuclear GFac                               R   N=           3
  2.79284600E+00  0.00000000E+00  2.79284600E+00
MicOpt                                     I   N=           3
          -1          -1          -1
Number of contracted shells                I                8
Number of primitive shells                 I               19
Pure/Cartesian d shells                    I                1
Pure/Cartesian f shells                    I                0
Highest angular momentum                   I                1
Largest degree of contraction              I                6
Shell types                                I   N=           8
           0           0           0          -1          -1          -1
           0           0
Number of primitives per shell             I   N=           8
           3           1           6           3           1           1
           3           1
Shell to atom map                          I   N=           8
           1           1           2           2           2           2
           3           3
Primitive exponents                        R   N=          19
  1.87311370E+01  2.82539436E+00  6.40121692E-01  1.61277759E-01  5.48467166E+03
  8.25234946E+02  1.88046958E+02  5.29645000E+01  1.68975704E+01  5.79963534E+00
  1.55396162E+01  3.59993359E+00  1.01376175E+00  2.70005823E-01  8.45000000E-02
  1.87311370E+01  2.82539436E+00  6.40121692E-01  1.61277759E-01
Contraction coefficients                   R   N=          19
  3.34946043E-02  2.34726953E-01  8.13757326E-01  1.00000000E+00  1.83107443E-03
  1.39501722E-02  6.84450781E-02  2.32714336E-01  4.70192898E-01  3.58520853E-01
 -1.10777550E-01 -1.48026263E-01  1.13076702E+00  1.00000000E+00  1.00000000E+00
  3.34946043E-02  2.34726953E-01  8.13757326E-01  1.00000000E+00
P(S=P) Contraction coefficients            R   N=          19
  0.00000000E+00  0.00000000E+00  0.00000000E+00  0.00000000E+00  0.00000000E+00
  0.00000000E+00  0.00000000E+00  0.00000000E+00  0.00000000E+00  0.00000000E+00
  7.08742682E-02  3.39752839E-01  7.27158577E-01  1.00000000E+00  1.00000000E+00
  0.00000000E+00  0.00000000E+00  0.00000000E+00  0.00000000E+00
Coordinates of each shell                  R   N=          24
  0.00000000E+00  1.48124293E+00 -8.37919685E-01  0.00000000E+00  1.48124293E+00
 -8.37919685E-01  0.00000000E+00  3.94162941E-49  2.09479921E-01  0.00000000E+00
  3.94162941E-49  2.09479921E-01  0.00000000E+00  3.94162941E-49  2.09479921E-01
  0.00000000E+00  3.94162941E-49  2.09479921E-01 -1.81399942E-16 -1.48124293E+00
 -8.37919685E-01 -1.81399942E-16 -1.48124293E+00 -8.37919685E-01
Constraint Structure                       R   N=           9
  0.00000000E+00  1.48124293E+00 -8.37919685E-01  0.00000000E+00  3.94162941E-49
  2.09479921E-01 -1.81399942E-16 -1.48124293E+00 -8.37919685E-01
Num ILSW                                   I              100
ILSW                                       I   N=         100
           0           1           0           0           2           0
           0           0           0           0           0          -1
           0           0           0           0           2           0
           0           0           0           0           1           0
           1           0           0           0           0           0
           0           0      100000           0          -1           0
           0           0           0           0           0           0
           0           0           0           1           0           0
           0           0           1           0           0           0
           0           0           4          41           0           0
           0           0           0           0           0           0
           0           0           0           3           0           0
           0           0           0           0           0           0
           0           0           0           0           0           0
           0           0           0           0           0           0
           0           0           0           0           0           0
           0           0           0           0
Num RLSW                                   I               41
RLSW                                       R   N=          41
  1.00000000E+00  1.00000000E+00  1.00000000E+00  1.00000000E+00  1.00000000E+00
  0.00000000E+00  0.00000000E+00  1.00000000E+00  0.00000000E+00  0.00000000E+00
  0.00000000E+00  0.00000000E+00  1.00000000E+00  0.00000000E+00  0.00000000E+00
  0.00000000E+00  0.00000000E+00  1.00000000E+00  0.00000000E+00  0.00000000E+00
  0.00000000E+00  0.00000000E+00  1.00000000E+00  0.00000000E+00  0.00000000E+00
  0.00000000E+00  0.00000000E+00  1.00000000E+00  0.00000000E+00  0.00000000E+00
  0.00000000E+00  0.00000000E+00  1.00000000E+00  0.00000000E+00  0.00000000E+00
  0.00000000E+00  0.00000000E+00  0.00000000E+00  1.00000000E+00  1.00000000E+00
  0.00000000E+00
MxBond                                     I                2
NBond                                      I   N=           3
           1           2           1
IBond                                      I   N=           6
           2           0           1           3           2           0
RBond                                      R   N=           6
  1.00000000E+00  0.00000000E+00  1.00000000E+00  1.00000000E+00  1.00000000E+00
  0.00000000E+00
Virial Ratio                               R      2.000834087760168E+00
SCF Energy                                 R     -7.599264122862967E+01
Total Energy                               R     -7.599264122862967E+01
RMS Force                                  R      7.787886059821232E-03
RMS Density                                R      6.752266009324084E-09
External E-field                           R   N=          35
  0.00000000E+00  0.00000000E+00  0.00000000E+00  0.00000000E+00  0.00000000E+00
  0.00000000E+00  0.00000000E+00  0.00000000E+00  0.00000000E+00  0.00000000E+00
  0.00000000E+00  0.00000000E+00  0.00000000E+00  0.00000000E+00  0.00000000E+00
  0.00000000E+00  0.00000000E+00  0.00000000E+00  0.00000000E+00  0.00000000E+00
  0.00000000E+00  0.00000000E+00  0.00000000E+00  0.00000000E+00  0.00000000E+00
  0.00000000E+00  0.00000000E+00  0.00000000E+00  0.00000000E+00  0.00000000E+00
  0.00000000E+00  0.00000000E+00  0.00000000E+00  0.00000000E+00  0.00000000E+00
IOpCl                                      I                0
IROHF                                      I                0
Alpha Orbital Energies                     R   N=          17
 -2.05781392E+01 -1.36600571E+00 -7.33669512E-01 -5.65614602E-01 -5.11539609E-01
  1.43251820E-01  2.20008407E-01  2.51974896E-01  2.59717386E-01  3.54322349E-01
  3.70149085E-01  1.30517459E+00  1.35957011E+00  1.40263376E+00  1.41585981E+00
  1.44284295E+00  1.74816229E+00
Alpha MO coefficients                      R   N=         289
  6.26602053E-05  1.98976005E-03  9.95780993E-01  2.21124123E-02  0.00000000E+00
  0.00000000E+00 -1.88120417E-03 -8.36010265E-03  0.00000000E+00  0.00000000E+00
  1.42980533E-03  3.13774524E-04  0.00000000E+00  0.00000000E+00  4.93390805E-04
  6.26602053E-05  1.98976005E-03  1.41083967E-01 -4.00465092E-02 -2.13360470E-01
  4.73102526E-01  0.00000000E+00  0.00000000E+00 -1.06423809E-01  4.85081358E-01
  0.00000000E+00  0.00000000E+00 -6.23940113E-02  4.65394507E-02  0.00000000E+00
  0.00000000E+00 -1.70478380E-02  1.41083967E-01 -4.00465092E-02  2.62693015E-01
  1.09020403E-01  0.00000000E+00  0.00000000E+00  0.00000000E+00  5.09051730E-01
  0.00000000E+00  0.00000000E+00  0.00000000E+00  2.68553869E-01  0.00000000E+00
  0.00000000E+00  0.00000000E+00  3.51536658E-03  0.00000000E+00 -2.62693015E-01
 -1.09020403E-01 -1.38570681E-01 -6.55314058E-02 -7.07093953E-02  1.77259083E-01
  0.00000000E+00  0.00000000E+00  5.60737212E-01  2.56975581E-01  0.00000000E+00
  0.00000000E+00  3.82374969E-01  2.29791000E-02  0.00000000E+00  0.00000000E+00
  6.19572601E-02 -1.38570681E-01 -6.55314058E-02  0.00000000E+00  0.00000000E+00
  0.00000000E+00  0.00000000E+00  6.40468839E-01  0.00000000E+00  0.00000000E+00
  0.00000000E+00  4.65075733E-01  0.00000000E+00  0.00000000E+00  0.00000000E+00
  8.12276968E-02  0.00000000E+00  0.00000000E+00  0.00000000E+00  0.00000000E+00
  5.55047479E-02 -3.42188632E-01  6.65830211E-02 -8.70419002E-02  0.00000000E+00
  0.00000000E+00  1.76358553E-01 -7.54958016E-01  0.00000000E+00  0.00000000E+00
  2.12712748E-01  1.75037445E+00  0.00000000E+00  0.00000000E+00 -7.43029172E-01
  5.55047479E-02 -3.42188632E-01  7.63171920E-03 -2.82792979E-01  0.00000000E+00
  0.00000000E+00  0.00000000E+00 -1.95402103E-01  0.00000000E+00  0.00000000E+00
  0.00000000E+00 -4.44986632E-01  0.00000000E+00  0.00000000E+00  0.00000000E+00
  1.41687918E+00  0.00000000E+00 -7.63171920E-03  2.82792979E-01  0.00000000E+00
  0.00000000E+00  0.00000000E+00  0.00000000E+00 -2.07827742E-01  0.00000000E+00
  0.00000000E+00  0.00000000E+00 -5.15403310E-01  0.00000000E+00  0.00000000E+00
  0.00000000E+00  1.23392365E+00  0.00000000E+00  0.00000000E+00  0.00000000E+00
  0.00000000E+00  3.52444942E-02  5.46473915E-01  5.43329135E-02 -6.90251954E-02
  0.00000000E+00  0.00000000E+00 -1.08158185E-01 -7.11819807E-01  0.00000000E+00
  0.00000000E+00 -3.14882720E-01  7.64882639E-02  0.00000000E+00  0.00000000E+00
  1.31077431E+00  3.52444942E-02  5.46473915E-01  1.06970588E-01  2.08280269E+00
  0.00000000E+00  0.00000000E+00  0.00000000E+00 -2.77361625E-01  0.00000000E+00
  0.00000000E+00  0.00000000E+00 -7.70088897E-01  0.00000000E+00  0.00000000E+00
  0.00000000E+00 -1.28883648E+00  0.00000000E+00 -1.06970588E-01 -2.08280269E+00
 -1.27993373E-01 -2.44866916E+00 -4.92730418E-02  5.89582578E-02  0.00000000E+00
  0.00000000E+00 -2.21647815E-01  8.98844184E-01  0.00000000E+00  0.00000000E+00
 -6.83776504E-01  3.16161410E+00  0.00000000E+00  0.00000000E+00 -8.96187145E-01
 -1.27993373E-01 -2.44866916E+00 -9.22805368E-01  1.66636174E+00  0.00000000E+00
  0.00000000E+00  0.00000000E+00  6.72825478E-01  0.00000000E+00  0.00000000E+00
  0.00000000E+00 -2.92503286E-01  0.00000000E+00  0.00000000E+00  0.00000000E+00
 -8.01673658E-01  0.00000000E+00  9.22805368E-01 -1.66636174E+00 -7.11502429E-01
  1.76271668E+00 -5.24226059E-02  5.51272378E-01  0.00000000E+00  0.00000000E+00
 -7.62356114E-01 -9.26536198E-01  0.00000000E+00  0.00000000E+00  8.44154696E-01
 -1.64607994E+00  0.00000000E+00  0.00000000E+00  3.84150601E-01 -7.11502429E-01
  1.76271668E+00  0.00000000E+00  0.00000000E+00  0.00000000E+00  0.00000000E+00
 -9.90480515E-01  0.00000000E+00  0.00000000E+00  0.00000000E+00  1.43164304E+00
  0.00000000E+00  0.00000000E+00  0.00000000E+00 -6.48616003E-01  0.00000000E+00
  0.00000000E+00  0.00000000E+00  0.00000000E+00 -6.06797869E-01  2.88679151E-01
  0.00000000E+00  0.00000000E+00  0.00000000E+00 -7.96684819E-01  0.00000000E+00
  0.00000000E+00  0.00000000E+00  1.74649523E+00  0.00000000E+00  0.00000000E+00
  0.00000000E+00 -7.93909456E-01  0.00000000E+00  6.06797869E-01 -2.88679151E-01
  7.83148802E-01 -7.84810852E-01  5.04105295E-02 -2.02276481E-01  0.00000000E+00
  0.00000000E+00 -6.64199969E-01  7.24246279E-03  0.00000000E+00  0.00000000E+00
  1.42464366E+00  7.06027086E-01  0.00000000E+00  0.00000000E+00 -8.68328918E-01
  7.83148802E-01 -7.84810852E-01 -5.05039659E-01  1.93866057E-02  5.38449422E-02
 -1.68038189E+00  0.00000000E+00  0.00000000E+00 -1.20341895E-01  2.64894594E+00
  0.00000000E+00  0.00000000E+00 -2.02061930E-01 -8.99404386E-01  0.00000000E+00
  0.00000000E+00 -2.56556674E-02 -5.05039659E-01  1.93866057E-02
Total SCF Density                          R   N=         153
  2.16228287E-01  6.41396682E-02  3.55749907E-02 -4.04821933E-02  3.03187867E-02
  2.08420459E+00  8.43713102E-02 -6.10362862E-02 -1.82912280E-01  5.11471482E-01
 -3.08148791E-33 -1.54074396E-33  0.00000000E+00  0.00000000E+00  8.20400666E-01
  2.67448668E-01  1.10994049E-01  0.00000000E+00  0.00000000E+00  3.08148791E-33
  5.18267329E-01 -1.85433096E-01 -6.49754776E-02 -3.76320451E-02  9.80095855E-02
  0.00000000E+00  1.11445577E-48  6.51511573E-01  6.56547949E-02 -7.25648415E-02
 -2.59985212E-01  5.49719219E-01  0.00000000E+00  3.16411865E-49  1.84974584E-01
  6.02820530E-01 -1.54074396E-33 -7.70371978E-34  0.00000000E+00  0.00000000E+00
  5.95733030E-01  6.16297582E-33 -2.86381451E-65  0.00000000E+00  4.32590876E-01
  1.41094451E-01  5.85557018E-02  0.00000000E+00  0.00000000E+00  6.16297582E-33
  2.73415623E-01 -5.14466043E-49  0.00000000E+00  6.16297582E-33  1.44242361E-01
 -1.23577330E-01 -4.51121239E-02 -2.46026287E-02  7.65845768E-02  0.00000000E+00
  7.56240660E-49  4.42098785E-01  1.35965810E-01  0.00000000E+00  5.13532350E-49
  3.00211348E-01  6.76352092E-03 -6.73794186E-03 -2.24841332E-02  5.21962483E-02
  0.00000000E+00  2.71355857E-50  1.58634811E-02  5.69557287E-02  0.00000000E+00
  2.01275802E-50  1.17665966E-02  5.38811592E-03 -2.40741243E-35 -9.02779661E-36
  0.00000000E+00  0.00000000E+00  1.04047617E-01  1.15555797E-33 -3.74872940E-67
  0.00000000E+00  7.55540613E-02  1.15555797E-33 -1.97766892E-67  0.00000000E+00
  1.31958774E-02  1.84692450E-03  7.66493360E-04  0.00000000E+00  0.00000000E+00
  1.15555797E-33  3.57900689E-03 -6.73435368E-51  0.00000000E+00  1.15555797E-33
  1.88813059E-03 -3.55275629E-51  0.00000000E+00  1.44444746E-34  2.47156044E-05
 -2.19812108E-02 -6.75291644E-03 -5.04632973E-04  5.85604385E-03  0.00000000E+00
  1.25060103E-49  7.31102179E-02  1.52955794E-02  0.00000000E+00  8.46912970E-50
  4.95105877E-02  1.26095975E-03  0.00000000E+00  1.41278470E-50  8.25914858E-03
 -5.98021941E-02 -5.04159250E-02 -4.04821933E-02  8.43713102E-02  3.08148791E-33
 -2.67448668E-01 -1.85433096E-01  6.56547949E-02  1.54074396E-33 -1.41094451E-01
 -1.23577330E-01  6.76352092E-03  2.40741243E-35 -1.84692450E-03 -2.19812108E-02
  2.16228287E-01 -5.04159250E-02 -1.19668020E-02  3.03187867E-02 -6.10362862E-02
  1.54074396E-33 -1.10994049E-01 -6.49754776E-02 -7.25648415E-02  7.70371978E-34
 -5.85557018E-02 -4.51121239E-02 -6.73794186E-03  9.02779661E-36 -7.66493360E-04
 -6.75291644E-03  6.41396682E-02  3.55749907E-02
Mulliken Charges                           R   N=           3
  4.55333449E-01 -9.10666898E-01  4.55333449E-01
ONIOM Charges                              I   N=          16
           0           0           0           0           0           0
           0           0           0           0           0           0
           0           0           0           0
ONIOM Multiplicities                       I   N=          16
           1           0           0           0           0           0
           0           0           0           0           0           0
           0           0           0           0
Atom Layers                                I   N=           3
           1           1           1
Atom Modifiers                             I   N=           3
           0           0           0
Force Field                                I                0
Int Atom Modified Types                    I   N=           3
           0           0           0
Link Atoms                                 I   N=           3
           0           0           0
Atom Modified MM Charges                   R   N=           3
  0.00000000E+00  0.00000000E+00  0.00000000E+00
Link Distances                             R   N=          12
  0.00000000E+00  0.00000000E+00  0.00000000E+00  0.00000000E+00  0.00000000E+00
  0.00000000E+00  0.00000000E+00  0.00000000E+00  0.00000000E+00  0.00000000E+00
  0.00000000E+00  0.00000000E+00
Cartesian Gradient                         R   N=           9
  2.44329621E-17  4.95449892E-03 -9.09914286E-03  7.79137241E-16 -3.60443012E-16
  1.81982857E-02 -8.03570203E-16 -4.95449892E-03 -9.09914286E-03
Cartesian Force Constants                  R   N=          45
  6.01609576E-03 -1.49139361E-17  4.08495437E-01  9.62394524E-18 -2.24496238E-01
  2.02361281E-01 -8.68736665E-03 -6.71636540E-17  9.26710670E-17  1.73747312E-02
  2.25769318E-17 -3.75967989E-01  2.59707285E-01 -6.35372722E-16  7.51935977E-01
 -1.08303681E-17  1.89285190E-01 -2.17736483E-01 -6.27337752E-16 -6.49473397E-10
  4.35472966E-01  2.67126987E-03  3.14690198E-17 -4.39514621E-17 -8.68736457E-03
  6.38612357E-16  5.21031495E-16  6.01609576E-03  3.69872543E-17 -3.25274482E-02
 -3.52110474E-02  6.33094840E-16 -3.75967988E-01 -1.89285190E-01 -6.45290090E-16
  4.08495437E-01  4.90002697E-17  3.52110474E-02  1.53752022E-02  4.28081270E-16
 -2.59707285E-01 -2.17736484E-01 -4.18288465E-16  2.24496238E-01  2.02361281E-01
Dipole Moment                              R   N=           3
 -7.31182720E-17  8.32667268E-17 -1.04360878E+00
Dipole Derivatives                         R   N=          27
  4.98190362E-01  1.47586079E-16  2.17854865E-16  1.96960466E-17  2.98434608E-01
  1.01145672E-01 -1.07762348E-17  1.41249022E-01  2.29077003E-01 -9.96380722E-01
  2.18510248E-15  3.72797212E-16 -4.05968592E-16 -5.96869217E-01  5.38002815E-09
 -2.40437214E-16 -3.54637730E-10 -4.58154000E-01  4.98190362E-01 -1.02261624E-15
 -3.69918236E-16  2.44688596E-16  2.98434608E-01 -1.01145672E-01  1.59850416E-16
 -1.41249022E-01  2.29077003E-01
Polarizability                             R   N=           6
  3.87254779E+00  2.40174732E-16  7.19507655E+00  2.10613976E-16 -3.34828736E-16
  5.01326517E+00
Polarizability Derivatives                 R   N=          54
 -1.20726691E-15  1.12153385E+00  2.34352925E-15 -5.44547041E-01  8.31293695E-16
  1.27194705E-15  4.62242062E-02  1.47569285E-17  5.31074772E+00  1.07986309E-17
 -2.58354447E+00  1.58726582E+00 -1.83027538E-01 -4.62866556E-18 -2.64089139E+00
  1.80479759E-17  2.56332632E+00 -2.95467254E+00  1.29778152E-14 -8.66743196E-08
  2.35902907E-14  1.08909408E+00  1.24975517E-14  3.30945639E-15  5.60618539E-08
  4.07122654E-16  6.23226351E-08 -1.88945413E-16  5.16708897E+00  6.13140938E-08
  3.66055136E-01 -4.57071011E-17  5.28178284E+00  2.46550851E-16  5.29043886E-08
  5.90934514E+00 -1.26454729E-14 -1.12153385E+00 -1.73337786E-14 -5.44547041E-01
 -7.94822448E-15 -3.80760078E-15 -4.62242062E-02 -4.20509315E-17 -5.31074772E+00
  9.22418193E-17 -2.58354447E+00 -1.58726582E+00 -1.83027538E-01  2.23276924E-16
 -2.64089139E+00 -8.90602198E-18 -2.56332632E+00 -2.95467254E+00
HyperPolarizability                        R   N=          10
  7.29686629E-15  1.45823667E-15 -1.17640575E-15  1.04523090E-15 -1.45977508E+00
 -1.51549777E-15 -1.65813563E+01 -3.90897755E-16  7.64600492E-16 -8.60918481E+00
QEq coupling tensors                       R   N=          18
  2.94131573E-01 -1.83124651E-18 -3.02878774E-01  1.90882368E-19  3.48786870E-01
  8.74720059E-03  1.83985490E+00  6.46468433E-17 -1.73956721E+00  4.33718645E-17
 -2.77555756E-17 -1.00287690E-01  2.94131573E-01 -1.09867244E-16 -3.02878774E-01
 -7.56050962E-17 -3.48786870E-01  8.74720059E-03
