untitled_21                                                             
Freq      RHF                                                         6-31+G              
Number of atoms                            I                6
Info1-9                                    I   N=           9
          16          13        1002           0           0         100
           6           1           2
Charge                                     I                0
Multiplicity                               I                1
Number of electrons                        I               18
Number of alpha electrons                  I                9
Number of beta electrons                   I                9
Number of basis functions                  I               34
Number of independent functions            I               34
Number of point charges in /Mol/           I                0
Number of translation vectors              I                0
Atomic numbers                             I   N=           6
           6           8           1           1           1           1
Nuclear charges                            R   N=           6
  6.00000000E+00  8.00000000E+00  1.00000000E+00  1.00000000E+00  1.00000000E+00
  1.00000000E+00
Current cartesian coordinates              R   N=          18
  1.28560231E+00 -4.32306092E-02 -1.24900090E-16 -1.41240014E+00  2.23813795E-01
 -4.90291118E-08  1.93423929E+00 -1.02590434E+00 -1.67299379E+00  1.93423964E+00
 -1.02588825E+00  1.67300310E+00  2.03153075E+00  1.84909500E+00 -9.17370544E-06
 -2.31442242E+00 -1.32842912E+00  2.29940100E-07
Force Field                                I                0
Int Atom Types                             I   N=           6
           0           0           0           0           0           0
MM charges                                 R   N=           6
  0.00000000E+00  0.00000000E+00  0.00000000E+00  0.00000000E+00  0.00000000E+00
  0.00000000E+00
Integer atomic weights                     I   N=           6
          12          16           1           1           1           1
Real atomic weights                        R   N=           6
  1.20000000E+01  1.59949146E+01  1.00782504E+00  1.00782504E+00  1.00782504E+00
  1.00782504E+00
Atom fragment info                         I   N=           6
           0           0           0           0           0           0
Atom residue num                           I   N=           6
           0           0           0           0           0           0
Nuclear spins                              I   N=           6
           0           0           1           1           1           1
Nuclear ZEff                               R   N=           6
 -3.60000000E+00 -5.60000000E+00 -1.00000000E+00 -1.00000000E+00 -1.00000000E+00
 -1.00000000E+00
Nuclear ZNuc                               R   N=           6
  6.00000000E+00  8.00000000E+00  1.00000000E+00  1.00000000E+00  1.00000000E+00
  1.00000000E+00
Nuclear QMom                               R   N=           6
  0.00000000E+00  0.00000000E+00  0.00000000E+00  0.00000000E+00  0.00000000E+00
  0.00000000E+00
Nuclear GFac                               R   N=           6
  0.00000000E+00  0.00000000E+00  2.79284600E+00  2.79284600E+00  2.79284600E+00
  2.79284600E+00
MicOpt                                     I   N=           6
          -1          -1          -1          -1          -1          -1
Number of contracted shells                I               16
Number of primitive shells                 I               38
Pure/Cartesian d shells                    I                1
Pure/Cartesian f shells                    I                0
Highest angular momentum                   I                1
Largest degree of contraction              I                6
Shell types                                I   N=          16
           0          -1          -1          -1           0          -1
          -1          -1           0           0           0           0
           0           0           0           0
Number of primitives per shell             I   N=          16
           6           3           1           1           6           3
           1           1           3           1           3           1
           3           1           3           1
Shell to atom map                          I   N=          16
           1           1           1           1           2           2
           2           2           3           3           4           4
           5           5           6           6
Primitive exponents                        R   N=          38
  3.04752488E+03  4.57369518E+02  1.03948685E+02  2.92101553E+01  9.28666296E+00
  3.16392696E+00  7.86827235E+00  1.88128854E+00  5.44249258E-01  1.68714478E-01
  4.38000000E-02  5.48467166E+03  8.25234946E+02  1.88046958E+02  5.29645000E+01
  1.68975704E+01  5.79963534E+00  1.55396162E+01  3.59993359E+00  1.01376175E+00
  2.70005823E-01  8.45000000E-02  1.87311370E+01  2.82539436E+00  6.40121692E-01
  1.61277759E-01  1.87311370E+01  2.82539436E+00  6.40121692E-01  1.61277759E-01
  1.87311370E+01  2.82539436E+00  6.40121692E-01  1.61277759E-01  1.87311370E+01
  2.82539436E+00  6.40121692E-01  1.61277759E-01
Contraction coefficients                   R   N=          38
  1.83473713E-03  1.40373228E-02  6.88426223E-02  2.32184443E-01  4.67941348E-01
  3.62311985E-01 -1.19332420E-01 -1.60854152E-01  1.14345644E+00  1.00000000E+00
  1.00000000E+00  1.83107443E-03  1.39501722E-02  6.84450781E-02  2.32714336E-01
  4.70192898E-01  3.58520853E-01 -1.10777550E-01 -1.48026263E-01  1.13076702E+00
  1.00000000E+00  1.00000000E+00  3.34946043E-02  2.34726953E-01  8.13757326E-01
  1.00000000E+00  3.34946043E-02  2.34726953E-01  8.13757326E-01  1.00000000E+00
  3.34946043E-02  2.34726953E-01  8.13757326E-01  1.00000000E+00  3.34946043E-02
  2.34726953E-01  8.13757326E-01  1.00000000E+00
P(S=P) Contraction coefficients            R   N=          38
  0.00000000E+00  0.00000000E+00  0.00000000E+00  0.00000000E+00  0.00000000E+00
  0.00000000E+00  6.89990666E-02  3.16423961E-01  7.44308291E-01  1.00000000E+00
  1.00000000E+00  0.00000000E+00  0.00000000E+00  0.00000000E+00  0.00000000E+00
  0.00000000E+00  0.00000000E+00  7.08742682E-02  3.39752839E-01  7.27158577E-01
  1.00000000E+00  1.00000000E+00  0.00000000E+00  0.00000000E+00  0.00000000E+00
  0.00000000E+00  0.00000000E+00  0.00000000E+00  0.00000000E+00  0.00000000E+00
  0.00000000E+00  0.00000000E+00  0.00000000E+00  0.00000000E+00  0.00000000E+00
  0.00000000E+00  0.00000000E+00  0.00000000E+00
Coordinates of each shell                  R   N=          48
  1.28560231E+00 -4.32306092E-02 -1.24900090E-16  1.28560231E+00 -4.32306092E-02
 -1.24900090E-16  1.28560231E+00 -4.32306092E-02 -1.24900090E-16  1.28560231E+00
 -4.32306092E-02 -1.24900090E-16 -1.41240014E+00  2.23813795E-01 -4.90291118E-08
 -1.41240014E+00  2.23813795E-01 -4.90291118E-08 -1.41240014E+00  2.23813795E-01
 -4.90291118E-08 -1.41240014E+00  2.23813795E-01 -4.90291118E-08  1.93423929E+00
 -1.02590434E+00 -1.67299379E+00  1.93423929E+00 -1.02590434E+00 -1.67299379E+00
  1.93423964E+00 -1.02588825E+00  1.67300310E+00  1.93423964E+00 -1.02588825E+00
  1.67300310E+00  2.03153075E+00  1.84909500E+00 -9.17370544E-06  2.03153075E+00
  1.84909500E+00 -9.17370544E-06 -2.31442242E+00 -1.32842912E+00  2.29940100E-07
 -2.31442242E+00 -1.32842912E+00  2.29940100E-07
Constraint Structure                       R   N=          18
  1.28560231E+00 -4.32306092E-02 -1.24900090E-16 -1.41240014E+00  2.23813795E-01
 -4.90291118E-08  1.93423929E+00 -1.02590434E+00 -1.67299379E+00  1.93423964E+00
 -1.02588825E+00  1.67300310E+00  2.03153075E+00  1.84909500E+00 -9.17370544E-06
 -2.31442242E+00 -1.32842912E+00  2.29940100E-07
Num ILSW                                   I              100
ILSW                                       I   N=         100
           0           1           0           0           2           0
           0           0           0           0           0          -1
           0           0           0           0           2           0
           0           0           0           0           1           0
           1           0           0           0           0           0
           0           0      100000           0          -1           0
           0           0           0           0           0           0
           0           0           0           1           0           0
           0           0           1           0           0           0
           0           0           4          41           0           0
           0           0           0           0           0           0
           0           0           0           6           0           0
           0           0           0           0           0           0
           0           0           0           0           0           0
           0           0           0           0           0           0
           0           0           0           0           0           0
           0           0           0           0
Num RLSW                                   I               41
RLSW                                       R   N=          41
  1.00000000E+00  1.00000000E+00  1.00000000E+00  1.00000000E+00  1.00000000E+00
  0.00000000E+00  0.00000000E+00  1.00000000E+00  0.00000000E+00  0.00000000E+00
  0.00000000E+00  0.00000000E+00  1.00000000E+00  0.00000000E+00  0.00000000E+00
  0.00000000E+00  0.00000000E+00  1.00000000E+00  0.00000000E+00  0.00000000E+00
  0.00000000E+00  0.00000000E+00  1.00000000E+00  0.00000000E+00  0.00000000E+00
  0.00000000E+00  0.00000000E+00  1.00000000E+00  0.00000000E+00  0.00000000E+00
  0.00000000E+00  0.00000000E+00  1.00000000E+00  0.00000000E+00  0.00000000E+00
  0.00000000E+00  0.00000000E+00  0.00000000E+00  1.00000000E+00  1.00000000E+00
  0.00000000E+00
MxBond                                     I                4
NBond                                      I   N=           6
           4           2           1           1           1           1
IBond                                      I   N=          24
           2           3           4           5           1           6
           0           0           1           0           0           0
           1           0           0           0           1           0
           0           0           2           0           0           0
RBond                                      R   N=          24
  3.00000000E+00  1.00000000E+00  1.00000000E+00  1.00000000E+00  3.00000000E+00
  1.00000000E+00  0.00000000E+00  0.00000000E+00  1.00000000E+00  0.00000000E+00
  0.00000000E+00  0.00000000E+00  1.00000000E+00  0.00000000E+00  0.00000000E+00
  0.00000000E+00  1.00000000E+00  0.00000000E+00  0.00000000E+00  0.00000000E+00
  1.00000000E+00  0.00000000E+00  0.00000000E+00  0.00000000E+00
Virial Ratio                               R      1.999762157865184E+00
SCF Energy                                 R     -1.149939613029231E+02
Total Energy                               R     -1.149939613029231E+02
RMS Force                                  R      9.341571675707406E-05
RMS Density                                R      5.017639550099486E-10
External E-field                           R   N=          35
  0.00000000E+00  0.00000000E+00  0.00000000E+00  0.00000000E+00  0.00000000E+00
  0.00000000E+00  0.00000000E+00  0.00000000E+00  0.00000000E+00  0.00000000E+00
  0.00000000E+00  0.00000000E+00  0.00000000E+00  0.00000000E+00  0.00000000E+00
  0.00000000E+00  0.00000000E+00  0.00000000E+00  0.00000000E+00  0.00000000E+00
  0.00000000E+00  0.00000000E+00  0.00000000E+00  0.00000000E+00  0.00000000E+00
  0.00000000E+00  0.00000000E+00  0.00000000E+00  0.00000000E+00  0.00000000E+00
  0.00000000E+00  0.00000000E+00  0.00000000E+00  0.00000000E+00  0.00000000E+00
IOpCl                                      I                0
IROHF                                      I                0
Alpha Orbital Energies                     R   N=          34
 -2.05632113E+01 -1.12794469E+01 -1.36237314E+00 -9.45228200E-01 -6.91263213E-01
 -6.27418855E-01 -5.96167778E-01 -4.94675615E-01 -4.52838313E-01  7.88832822E-02
  9.31401531E-02  1.14070991E-01  1.14990177E-01  2.50274173E-01  2.89490920E-01
  3.09858095E-01  3.31787433E-01  3.46417969E-01  3.48834248E-01  4.04491751E-01
  4.32622591E-01  4.54492579E-01  8.56602502E-01  8.77745471E-01  9.00722063E-01
  1.23369042E+00  1.23438230E+00  1.33492655E+00  1.38609918E+00  1.46456417E+00
  1.50291441E+00  1.56072141E+00  1.57634815E+00  2.09449992E+00
Alpha MO coefficients                      R   N=        1156
  8.95815682E-06  4.85628935E-06 -4.63904440E-04  1.51533704E-05  2.44148866E-10
  2.61617430E-03 -1.03208078E-03 -4.83698655E-05 -1.67991540E-09 -2.27279515E-03
  1.57235926E-03 -5.76234358E-05 -5.90407615E-10  9.95825121E-01  2.29586800E-02
  9.36860067E-04 -1.63807279E-03  3.34602196E-10 -1.11397994E-02 -1.71858574E-03
  1.31237887E-03 -8.40450282E-11  5.57696717E-03  1.26965658E-03  2.80233912E-05
  3.36296418E-10 -2.32408478E-04 -6.08227408E-04 -2.32408317E-04 -6.08224687E-04
 -1.33951264E-04 -8.05316856E-04  2.25542793E-04  1.21186799E-03  9.96276769E-01
  2.59495544E-02 -8.89093699E-04 -1.84428154E-05 -5.36576395E-10 -1.90813100E-02
  1.50731105E-03 -1.85796122E-04  1.39409392E-09 -3.29879709E-03  9.04370325E-04
 -1.68878663E-05  3.68380728E-10 -5.22687760E-05  3.92904336E-04  6.92483743E-05
 -6.15196743E-06  1.55317819E-11  4.32020962E-04  4.98918868E-04 -1.60701342E-04
 -9.89909229E-11  7.59755664E-03  2.55012083E-03 -7.67538234E-04 -1.49021568E-10
  3.29133900E-07  3.02457586E-03  3.29601157E-07  3.02457391E-03  3.78775664E-05
  3.16472396E-03  8.75768255E-05 -9.18571813E-04 -6.89303575E-02  1.34110565E-01
 -8.81738556E-02  4.01231273E-03 -9.23146591E-09  3.60146549E-02  2.07778438E-02
 -7.58079023E-03  5.85463895E-08  2.17510720E-02 -1.69337452E-02  1.02325475E-03
  2.09510023E-08 -2.07173252E-01  4.49173515E-01  4.04471307E-02 -8.74501051E-02
  1.72769952E-08  4.99508222E-01  4.64800714E-02 -5.08672447E-02  3.01619707E-09
 -1.69346746E-02 -1.80524234E-02 -9.92421509E-03 -8.45396013E-09  2.40691252E-02
 -8.07535918E-04  2.40691244E-02 -8.07604951E-04  2.37262165E-02  1.10477961E-02
  1.36935256E-01 -3.21454207E-02 -1.81712070E-01  3.55918412E-01  5.80939970E-02
  7.60926460E-03 -2.19095589E-08  3.91757183E-01  9.85037918E-03 -8.13499807E-03
 -1.46019876E-08  2.42534112E-02 -2.33963052E-03 -1.33054237E-04 -5.38268488E-09
  5.72564454E-02 -1.27564208E-01  1.84779801E-01  7.16176121E-02 -1.55072985E-08
 -1.84956636E-01  6.75792869E-02  3.74942280E-02 -7.03347039E-09 -5.97480695E-02
 -1.24786575E-02  7.96146896E-03  1.99790543E-09  1.35746203E-01  2.82344083E-02
  1.35746185E-01  2.82344441E-02  1.41508905E-01  3.21126690E-02 -1.24646677E-01
 -1.03804961E-02  2.41562181E-02 -3.78471487E-02 -2.01285763E-01  2.19767418E-01
  1.79746000E-08 -9.96153479E-02 -4.99246247E-02  1.00924637E-01 -1.09032378E-07
 -8.50966992E-03 -2.94964746E-03  1.06180858E-02 -4.49987492E-08 -4.08438351E-02
  9.18095361E-02  2.59785571E-01  3.37210734E-01 -3.30952350E-08  1.69983259E-01
  1.55605930E-01  1.89129589E-01 -1.05744188E-08  5.97296055E-03 -1.41785817E-02
  3.21246196E-03  2.40784386E-08 -1.19791308E-01 -5.47788525E-02 -1.19790339E-01
 -5.47781142E-02  4.60007577E-02  2.39740635E-02 -2.28778728E-01 -1.02035905E-01
 -1.46820212E-08  2.80368249E-08  7.50767361E-09  4.64162179E-08  3.93872103E-01
  5.64139688E-08  2.80469644E-08 -1.16707412E-07  1.72383301E-01 -8.61405708E-09
  1.36634514E-08 -4.36916162E-08  8.08688642E-03  1.35490560E-08 -3.34540766E-08
 -2.51005545E-09 -4.17928305E-08  3.19785917E-01 -3.55818476E-08 -2.25223417E-09
 -2.92241574E-08  2.06198893E-01  8.63011731E-08  3.15424990E-10 -1.10869217E-08
  1.12162833E-02 -1.96654617E-01 -1.37440635E-01  1.96655668E-01  1.37441127E-01
 -1.02844673E-06 -5.43587949E-07  4.63360535E-08 -6.78115860E-08  3.05696051E-03
  2.77575561E-03 -2.73923527E-01 -2.96847608E-01  4.50128439E-08 -7.71112562E-02
 -8.89274244E-02 -1.72851960E-01  1.08123391E-07 -1.96673776E-02 -4.78519853E-03
 -1.42415904E-02  3.19375802E-08  1.72511765E-02 -5.24180204E-02  3.42856176E-01
 -1.18848161E-01  4.71339866E-08 -2.66305281E-02  2.40366942E-01 -8.35952324E-02
  2.93562112E-08  2.94228979E-03  1.99473699E-02  5.95696504E-03 -2.13066819E-08
  3.17981874E-02  2.16840939E-02  3.17966742E-02  2.16829981E-02 -2.44457909E-01
 -1.40132905E-01 -8.05810632E-02 -3.66346426E-02  1.04799035E-02 -3.05538045E-02
  1.17820707E-01 -2.77741319E-01  8.05811058E-09  2.21052646E-02  2.67015439E-02
 -1.13535570E-01 -1.09495515E-08  1.17685182E-02  5.23401459E-03 -9.22332378E-03
 -1.04260612E-08 -5.11504639E-02  1.30206936E-01 -2.00749521E-01  4.21975893E-01
  2.63265680E-07  1.87120747E-01 -1.58054239E-01  3.06935123E-01  2.04043851E-07
  3.08625227E-02 -3.14117288E-02  4.73502490E-02  1.25401249E-08  1.18617189E-01
  1.17985250E-01  1.18615440E-01  1.17983606E-01 -1.74862862E-01 -1.68196011E-01
 -1.30752919E-01 -8.58816015E-02  1.21648554E-09  1.69018557E-09 -5.12971494E-08
  1.82674317E-07 -2.30922057E-01 -4.50098196E-08 -2.97071029E-08  7.31596456E-08
 -1.09197030E-01  7.09980981E-09 -1.65001002E-08 -6.56874426E-09 -1.76889637E-02
  2.61820098E-08 -6.46442963E-08  1.07038405E-07 -1.02635122E-07  5.59703881E-01
 -1.13971132E-07  9.29458772E-08 -5.70188945E-08  4.32781785E-01 -8.52562163E-08
  2.27271108E-08 -3.14222956E-09  8.28685801E-02  1.66276397E-01  1.70600909E-01
 -1.66277397E-01 -1.70601954E-01  9.72010751E-07  1.03658771E-06  8.49738107E-08
  1.23938091E-07  2.80693189E-02 -1.15481937E-01 -7.19544729E-02  4.62090424E-02
  9.69357947E-09  2.11589217E-01 -2.76621495E-01  5.09518565E-02  1.71611047E-07
  2.34357438E+00 -7.50265116E-01 -4.39502844E-01  2.61038781E-07  2.34460923E-02
 -7.07486467E-02  4.10189958E-02  5.64692331E-02 -3.08041410E-08 -8.53240989E-02
 -4.84413294E-04  1.00704609E-01 -5.14609548E-08 -1.89052135E+00 -3.78140907E-01
  1.85710591E-01 -6.95648163E-08  1.30599655E-03 -2.49407657E-01  1.30603001E-03
 -2.49407039E-01  1.01339316E-02 -5.51557056E-02  9.83291615E-03  2.80285428E-01
  4.18775181E-02 -7.73097774E-02  3.68250108E-04 -1.06913156E-02  1.91642215E-08
 -2.41618213E-01  1.80180054E-02 -1.43681787E-02 -4.92419549E-08  1.84409641E-01
  1.33812532E+00  9.07568028E-02 -3.89551698E-07 -2.47124711E-02  7.04273734E-02
  4.45701989E-02 -5.26628806E-02  2.27078708E-08  8.87989659E-02  4.39921302E-02
 -8.07521722E-02  1.59299598E-08  8.73892041E-01  3.61082702E-02 -3.52777109E-02
  1.27231143E-07 -1.05388793E-03 -1.71364273E-01 -1.05387827E-03 -1.71364368E-01
 -2.69594153E-03 -2.40055745E-01 -1.78837696E-02 -1.64115631E-01  3.89014330E-03
 -3.60063153E-02 -3.82348528E-02 -1.12562171E-01  1.41012669E-06  1.31118472E-01
 -1.40359583E-01 -5.58898385E-02  1.37728626E-06  9.39408146E-01 -4.31150405E-01
  1.38120340E+00 -1.62688709E-05  1.17456414E-02 -4.35743603E-02  1.77096041E-03
 -2.09597483E-02  3.40163017E-07  9.81254488E-03 -3.03824649E-02  1.91594808E-02
 -3.02514426E-07 -7.56984202E-01 -2.97805788E-01 -4.79414219E-01  4.39320766E-06
  1.11061310E-02  1.16344148E-01  1.11063755E-02  1.16347846E-01 -1.54846083E-02
 -3.30045402E-01  5.17214692E-03 -1.82161595E-01  4.95968100E-08 -4.19173785E-07
 -4.26114648E-07 -1.33175786E-06 -1.26614838E-01  1.42538512E-06 -1.53844659E-06
 -9.27000419E-07 -1.34084522E-01  1.02899612E-05 -4.35742741E-06  1.59415147E-05
  1.42430779E+00  1.25701106E-07 -4.64506553E-07  3.12277981E-08 -2.23094166E-07
 -2.79484073E-02  1.03245819E-07 -3.27261774E-07  2.49658822E-07  2.96668102E-02
 -7.81446459E-06 -3.28166733E-06 -5.66018797E-06 -3.87856437E-01  1.57449498E-02
  2.60419360E-01 -1.57447868E-02 -2.60418575E-01 -8.85278199E-08 -2.13289818E-06
  8.01463073E-08 -2.25624559E-06 -4.67793312E-02  4.67185834E-02 -4.77563960E-02
 -2.17470340E-03 -5.22837325E-08  6.51821744E-01 -7.94143762E-03  2.23891138E-01
 -6.07206560E-08 -7.54801974E-01  9.33865167E-01  3.42788197E-01 -4.84433973E-08
  3.77679448E-02 -4.99128451E-02  7.07302526E-02  1.24534592E-01 -1.69050436E-08
 -4.71049455E-01  2.54279872E-01  2.14290785E-01 -4.82350319E-08  1.58044209E+00
 -1.26638211E+00 -1.00952173E+00  2.30900368E-07 -1.08994773E-02 -2.03120800E-02
 -1.08995714E-02 -2.03127765E-02 -4.48563938E-02 -1.25078992E-01  5.43107195E-02
 -4.23633695E-01  4.54536994E-02  2.94493919E-02 -4.23086956E-02 -1.65374330E-02
  8.20374469E-08 -1.20221624E+00  1.12515949E-01  7.02094198E-02  7.95740676E-07
 -1.00848462E+00  3.45114892E-01  5.76229931E-01  1.04065722E-07  9.06058339E-03
  1.07181337E-02 -3.72084723E-02  1.94638025E-01 -7.22411873E-08 -2.83111630E-01
 -1.20120785E-01  4.32054315E-01 -2.08392665E-07  1.91568572E+00  1.19735429E+00
 -1.53814469E+00  2.68124536E-07  2.41316711E-02  5.83190389E-02  2.41316274E-02
  5.83176289E-02  1.04416308E-02  1.68506349E-01  4.27040349E-02 -2.00750931E-01
 -1.00199582E-08 -7.66566420E-09  7.38451683E-09 -9.17990383E-08  2.44920212E-02
  2.61524212E-07  9.25422427E-10 -9.47593491E-07 -1.99989239E-01  2.02292143E-07
 -7.60812410E-08 -4.39029284E-07 -7.51520864E-01 -7.30480771E-09  7.97453519E-09
 -1.65893565E-08 -4.46277107E-08 -1.98720958E-01  1.28126965E-07 -4.15669815E-09
 -7.50135382E-08 -5.41608638E-01 -1.59278814E-07 -1.31057501E-07  4.96426714E-07
  1.74927828E+00 -9.81209612E-03  3.68009648E-03  9.81212627E-03 -3.68156420E-03
 -3.71790234E-08  1.16143773E-06 -1.91924708E-08 -1.90348393E-07 -2.12318681E-02
  1.72985766E-02 -8.18063549E-02 -2.68606901E-01  2.03664473E-06  2.77364227E-01
 -3.44393645E-01 -1.62705650E+00  1.16809337E-05 -1.79204155E-01  2.34188080E-01
 -5.77360769E-01  3.70416763E-06  2.42509586E-02 -2.08355362E-02 -6.66912258E-02
  7.65958395E-02 -4.21453951E-07 -4.10241167E-01 -5.42524162E-02  2.43731716E-01
 -1.07469470E-06 -9.78112238E-02  4.47224585E-02  6.95860499E-01 -2.81001916E-06
 -5.70288389E-02 -1.01288952E+00 -5.70292742E-02 -1.01289831E+00  1.10276131E-01
  1.99607231E+00 -3.27002384E-03  6.55028239E-01  3.84281624E-07  1.66825127E-06
 -7.93459271E-06  5.50006010E-06  3.19155095E-01 -2.69761862E-05 -2.81226074E-05
  2.32997128E-05  1.67669742E+00 -4.98678322E-05  2.69004382E-05 -2.94663538E-06
  6.01602662E-01  2.79918458E-06 -3.26048459E-06 -3.20784438E-06  1.07576045E-06
 -7.18035860E-02 -4.37044576E-05 -6.81899480E-06 -8.50452019E-07 -1.87617703E-01
  4.52779352E-05  1.29912426E-05  2.84831486E-05 -3.65780026E-01  8.39414075E-02
  1.90188723E+00 -8.39381410E-02 -1.90182083E+00 -6.94211786E-08 -5.88440697E-06
  3.49302566E-06  3.56728431E-05  1.28321309E-02  5.78656597E-02 -2.75565607E-01
  9.82656451E-02 -1.04819278E-05 -9.30337674E-01 -9.82367048E-01  3.65648603E-01
 -5.51198412E-05 -1.73055439E+00  9.37920594E-01 -2.19688299E-01 -1.97723217E-05
  8.76861482E-02 -1.01584033E-01 -1.38863397E-01  2.33622375E-02  2.32009190E-06
 -1.36371499E+00 -2.96370647E-01 -6.85976502E-02  6.05263185E-06  1.94890426E+00
  3.37425952E-01  7.51156817E-01  1.20330720E-05  4.72834132E-02  9.80712890E-01
  4.72888184E-02  9.80833121E-01  1.79655230E-02  9.03159445E-02  8.01337083E-02
  6.27232805E-01 -6.76079856E-02  5.27619469E-02  1.15041445E-01  3.70786553E-02
 -2.11191085E-06  1.51845209E+00  6.51635080E-01  2.71994083E-03 -9.97864688E-06
  9.17873388E-01 -8.15410585E-02 -1.40389912E-01 -4.19511585E-06  3.62098624E-02
 -4.31853521E-02  9.13167424E-02  1.36476007E-01  3.75111573E-07 -6.31031075E-01
  2.59363662E-01  4.06824791E-01  8.80710432E-07 -1.62540317E+00  1.04969835E+00
  1.36706375E+00  2.19127959E-06 -1.47938656E-02 -9.32634898E-01 -1.47932941E-02
 -9.32614121E-01 -8.41655272E-02 -1.59637089E+00  1.38146553E-01  2.82518709E+00
 -1.49205978E-01  1.56295657E-01 -1.36700773E-01  2.11915033E-02  6.16765759E-07
  2.91603903E+00 -9.72099116E-01  3.39038452E-01  2.71695406E-06  1.71686764E+00
 -2.89249385E-02  1.60877116E-01  1.24919742E-06  2.10989432E-02 -2.65908946E-02
 -3.28650262E-01 -1.30553971E-02 -1.06328681E-07 -3.19686129E-01 -9.98126780E-01
 -4.44637429E-02 -2.54983339E-07 -1.38210041E+00 -2.85412142E-01 -5.37106600E-01
 -6.18196971E-07  4.14980910E-03 -1.01976648E+00  4.14964140E-03 -1.01977474E+00
  1.87404884E-02 -1.26907036E+00 -2.86483008E-02 -9.49752874E-01  7.22113299E-03
  3.24805748E-02  1.69676202E-01 -2.68808780E-02  1.17380961E-06 -4.71226102E-01
  1.36803018E+00 -4.09234025E-02  4.72242840E-06 -1.53344671E+00  9.84717016E-01
 -6.47461027E-02  2.26005729E-06  1.85751827E-02 -1.33447747E-02  3.29279555E-02
 -1.00161750E-01 -1.79348972E-07 -3.31461974E-01  1.24279169E-01 -5.14318433E-01
 -3.17601033E-07  6.29736061E+00  1.21622742E+00 -9.68884718E-01 -1.03247715E-06
 -4.58239319E-02 -1.11176646E+00 -4.58241215E-02 -1.11177728E+00 -3.56998703E-04
 -8.58857691E-01 -7.98337662E-02 -2.43072671E+00 -1.00003409E-03  5.80233445E-02
 -1.39635374E-01 -9.60969755E-01  5.76072671E-06 -1.09830037E-01  2.16882095E-01
  1.92436973E+00 -1.10854512E-05 -7.28110795E-02 -9.84466406E-03 -4.06027869E-01
  2.62357833E-06  4.32467813E-03 -2.02056450E-02  5.22589840E-03 -2.15344370E-02
  1.34051365E-07  1.17545569E-02 -7.63275100E-02 -2.76430751E-01  1.48988793E-06
  3.73081943E-01  6.46397472E-02 -2.37326658E-01  5.30384379E-07  1.81120666E-01
  1.17360446E-01  1.81121196E-01  1.17360596E-01 -3.63813350E-01 -3.15699056E-01
  2.11647762E-02 -2.80913403E-01  2.78297577E-08  1.45222389E-07  9.06941183E-08
 -5.80879063E-06 -9.52674214E-01 -6.91699803E-07 -1.20135583E-07  1.24172788E-05
  2.01247641E+00 -1.07351746E-06  8.12387322E-07 -1.80031509E-06 -3.76531944E-01
 -3.24347706E-08  2.45604627E-07  6.15547062E-08 -6.19974929E-07 -4.49413132E-02
 -4.34741546E-07 -8.03387920E-07 -1.90098230E-06 -2.41990027E-01  5.29595064E-06
 -2.96968609E-07 -3.36377783E-06 -1.54094398E-01  3.32767542E-01  3.43064562E-01
 -3.32766993E-01 -3.43064332E-01 -1.54401773E-07 -6.10067913E-07 -4.13974819E-07
 -4.46331284E-06 -3.04556070E-02  8.70979572E-02 -1.07083601E+00  1.08029750E-01
 -7.59385163E-07 -1.64778777E-01  1.99680603E+00 -2.08811195E-01  1.78358359E-06
 -3.77973864E-01 -3.13817281E-01  4.92614440E-02 -2.69573953E-07  2.85866510E-02
 -2.30167178E-01 -3.08860593E-01  3.53546139E-02 -5.15243690E-08  6.74636690E-01
  1.65938836E-01 -7.15517759E-02 -1.90140110E-07  1.08401662E+00  7.31593664E-01
 -1.11658271E-01 -1.22280893E-07 -2.01015670E-01 -3.17056502E-01 -2.01015876E-01
 -3.17057476E-01 -1.26056869E-01 -3.52051297E-01 -3.60611978E-02 -1.42542630E-01
 -8.62171931E-07  3.30277906E-06  8.37309853E-06 -1.07789974E-04 -6.72560708E-01
 -1.70352645E-06 -1.47341766E-05  1.42530080E-04  8.76307569E-01  1.46631746E-05
 -1.62935257E-05  4.62577829E-05  3.38586144E-01 -9.97086842E-07 -7.32208848E-06
  1.04708474E-05  5.54226885E-05  3.37590298E-01  1.87148502E-05 -1.74322043E-05
 -8.20674253E-05 -4.39682467E-01 -1.09611262E-04  2.10395785E-06  5.53761134E-05
  6.94023267E-02 -8.82553527E-01  1.47698834E+00  8.82366176E-01 -1.47666661E+00
  1.50242652E-04 -2.52116448E-04 -3.71813935E-05  8.01805008E-05  5.00136000E-03
 -2.51586808E-02 -4.99815528E-02  6.42598310E-01 -1.12409848E-04  2.16194261E-02
  8.92193582E-02 -8.46444994E-01  1.46562844E-04 -9.11601055E-02  1.00199175E-01
 -2.74046344E-01  5.66067730E-05  5.51230662E-03  4.78687702E-02 -6.63537263E-02
 -3.37932994E-01  5.62245577E-05 -1.17307897E-01  1.04852698E-01  4.93075277E-01
 -7.31785118E-05  6.66922945E-01 -1.33697253E-02 -3.39020616E-01  1.15925899E-05
  5.74251618E-01 -9.88106438E-01  5.74538366E-01 -9.88586534E-01 -9.28234840E-01
  1.55024192E+00  2.13583311E-01 -4.81556548E-01  3.91788786E-02 -1.47855129E+00
 -4.21264692E-01 -4.37057346E-02  2.14966452E-07  3.76016565E+00  4.06775799E-01
  8.39080988E-02 -4.50737835E-07  1.01936001E+00  1.58584461E-03  2.73987934E-02
 -1.25788715E-07 -7.43220328E-03  1.63459239E-01  1.06038202E-01 -2.01865824E-02
 -3.77404549E-08 -5.06113938E-01 -3.68466962E-01  5.17298879E-02  6.60914747E-08
 -5.27253224E-01  1.41104681E-01  7.66709021E-02  4.11993054E-08  5.79721529E-01
 -1.56452836E+00  5.79721911E-01 -1.56452874E+00  7.22689462E-01 -1.84091047E+00
 -5.06224912E-02  1.86476931E-01  4.22381182E-03  1.83768771E-01  6.91232457E-03
 -1.00209894E-01  1.65843490E-06 -3.41016045E-01 -7.12967427E-02  1.41770856E-01
 -4.54124315E-06 -5.75890717E-03 -2.02489434E-02  2.23113865E-02 -1.16990343E-06
 -3.99505305E-02  3.69473331E-01 -2.41652320E-01 -6.92483831E-01 -1.66347031E-07
 -5.71731490E-01  1.55232115E-01  6.46050134E-01  6.01917703E-07 -1.45186065E+00
  3.88608195E-01  7.08977932E-01  4.11207035E-07 -7.75492405E-02  3.71918997E-01
 -7.75505292E-02  3.71925107E-01  1.41577968E-01 -3.14326751E-01 -1.15458079E+00
  2.77540459E+00 -1.12068810E-01 -2.04707870E+00  3.12576672E-01  1.74839684E-02
  2.60632656E-07  5.21772589E+00 -9.16501386E-01  1.95336271E-01 -1.31891415E-06
  8.18661036E-01 -2.98846811E-01 -9.47707000E-02 -2.84268100E-08  1.95429747E-04
  2.99060604E-02 -3.39683959E-01  1.06966937E-01 -8.49763042E-07 -6.23265838E-01
 -3.57849032E-02 -1.42787441E-01  1.40848871E-06 -2.82768201E+00 -1.10478045E+00
  5.10700515E-01 -6.16375942E-07 -4.10765434E-01 -3.85944248E-01 -4.10766719E-01
 -3.85941758E-01 -5.81802131E-01 -3.78702705E-01 -1.39688429E-01  6.43800053E-01
  9.45025871E-08  1.66716996E-06 -2.42024409E-07 -1.00605237E-08 -2.48727561E-01
 -4.21293489E-06  7.88438809E-07  1.26678232E-09 -8.57674391E-02 -7.54456045E-07
  2.62477388E-07  9.96306052E-09  4.56709520E-01 -2.99005016E-08  1.55525897E-07
  2.45630963E-07  3.17288819E-08 -9.42089603E-01  3.94835176E-07 -1.68856585E-07
 -4.97658096E-07  1.52422358E+00  2.20946832E-06  1.11374644E-06  7.23035156E-09
 -8.92970697E-01 -3.54743318E-01  3.54363764E-01  3.54745841E-01 -3.54364947E-01
 -1.39450690E-06  2.02986469E-06 -6.95762254E-07  1.57941031E-07 -3.58361381E-02
 -4.04174570E-01 -1.37339037E-01  1.41087104E-01 -1.12905266E-07  2.50838119E+00
 -5.77662620E-01  1.83800808E-01  3.03306415E-07  6.71186425E-01 -3.94446558E-01