untitled_15                                                             
Freq      RHF                                                         6-31+G              
Number of atoms                            I                8
Info1-9                                    I   N=           9
          18          15        1002           0           0         100
           6           1           2
Charge                                     I                0
Multiplicity                               I                1
Number of electrons                        I               18
Number of alpha electrons                  I                9
Number of beta electrons                   I                9
Number of basis functions                  I               38
Number of independent functions            I               38
Number of point charges in /Mol/           I                0
Number of translation vectors              I                0
Atomic numbers                             I   N=           8
           6           6           1           1           1           1
           1           1
Nuclear charges                            R   N=           8
  6.00000000E+00  6.00000000E+00  1.00000000E+00  1.00000000E+00  1.00000000E+00
  1.00000000E+00  1.00000000E+00  1.00000000E+00
Current cartesian coordinates              R   N=          24
  1.44584308E+00 -5.69699512E-08  8.69744490E-08 -1.44584308E+00  6.29940165E-08
 -6.66722742E-08  2.18627141E+00  4.24899873E-01 -1.86315058E+00  2.18627149E+00
 -1.82598577E+00  5.63601064E-01  2.18627154E+00  1.40108610E+00  1.29954905E+00
 -2.18627154E+00 -1.40108605E+00 -1.29954907E+00 -2.18627149E+00  1.82598574E+00
 -5.63601162E-01 -2.18627140E+00 -4.24899923E-01  1.86315058E+00
Force Field                                I                0
Int Atom Types                             I   N=           8
           0           0           0           0           0           0
           0           0
MM charges                                 R   N=           8
  0.00000000E+00  0.00000000E+00  0.00000000E+00  0.00000000E+00  0.00000000E+00
  0.00000000E+00  0.00000000E+00  0.00000000E+00
Integer atomic weights                     I   N=           8
          12          12           1           1           1           1
           1           1
Real atomic weights                        R   N=           8
  1.20000000E+01  1.20000000E+01  1.00782504E+00  1.00782504E+00  1.00782504E+00
  1.00782504E+00  1.00782504E+00  1.00782504E+00
Atom fragment info                         I   N=           8
           0           0           0           0           0           0
           0           0
Atom residue num                           I   N=           8
           0           0           0           0           0           0
           0           0
Nuclear spins                              I   N=           8
           0           0           1           1           1           1
           1           1
Nuclear ZEff                               R   N=           8
 -3.60000000E+00 -3.60000000E+00 -1.00000000E+00 -1.00000000E+00 -1.00000000E+00
 -1.00000000E+00 -1.00000000E+00 -1.00000000E+00
Nuclear ZNuc                               R   N=           8
  6.00000000E+00  6.00000000E+00  1.00000000E+00  1.00000000E+00  1.00000000E+00
  1.00000000E+00  1.00000000E+00  1.00000000E+00
Nuclear QMom                               R   N=           8
  0.00000000E+00  0.00000000E+00  0.00000000E+00  0.00000000E+00  0.00000000E+00
  0.00000000E+00  0.00000000E+00  0.00000000E+00
Nuclear GFac                               R   N=           8
  0.00000000E+00  0.00000000E+00  2.79284600E+00  2.79284600E+00  2.79284600E+00
  2.79284600E+00  2.79284600E+00  2.79284600E+00
MicOpt                                     I   N=           8
          -1          -1          -1          -1          -1          -1
          -1          -1
Number of contracted shells                I               20
Number of primitive shells                 I               46
Pure/Cartesian d shells                    I                1
Pure/Cartesian f shells                    I                0
Highest angular momentum                   I                1
Largest degree of contraction              I                6
Shell types                                I   N=          20
           0          -1          -1          -1           0          -1
          -1          -1           0           0           0           0
           0           0           0           0           0           0
           0           0
Number of primitives per shell             I   N=          20
           6           3           1           1           6           3
           1           1           3           1           3           1
           3           1           3           1           3           1
           3           1
Shell to atom map                          I   N=          20
           1           1           1           1           2           2
           2           2           3           3           4           4
           5           5           6           6           7           7
           8           8
Primitive exponents                        R   N=          46
  3.04752488E+03  4.57369518E+02  1.03948685E+02  2.92101553E+01  9.28666296E+00
  3.16392696E+00  7.86827235E+00  1.88128854E+00  5.44249258E-01  1.68714478E-01
  4.38000000E-02  3.04752488E+03  4.57369518E+02  1.03948685E+02  2.92101553E+01
  9.28666296E+00  3.16392696E+00  7.86827235E+00  1.88128854E+00  5.44249258E-01
  1.68714478E-01  4.38000000E-02  1.87311370E+01  2.82539436E+00  6.40121692E-01
  1.61277759E-01  1.87311370E+01  2.82539436E+00  6.40121692E-01  1.61277759E-01
  1.87311370E+01  2.82539436E+00  6.40121692E-01  1.61277759E-01  1.87311370E+01
  2.82539436E+00  6.40121692E-01  1.61277759E-01  1.87311370E+01  2.82539436E+00
  6.40121692E-01  1.61277759E-01  1.87311370E+01  2.82539436E+00  6.40121692E-01
  1.61277759E-01
Contraction coefficients                   R   N=          46
  1.83473713E-03  1.40373228E-02  6.88426223E-02  2.32184443E-01  4.67941348E-01
  3.62311985E-01 -1.19332420E-01 -1.60854152E-01  1.14345644E+00  1.00000000E+00
  1.00000000E+00  1.83473713E-03  1.40373228E-02  6.88426223E-02  2.32184443E-01
  4.67941348E-01  3.62311985E-01 -1.19332420E-01 -1.60854152E-01  1.14345644E+00
  1.00000000E+00  1.00000000E+00  3.34946043E-02  2.34726953E-01  8.13757326E-01
  1.00000000E+00  3.34946043E-02  2.34726953E-01  8.13757326E-01  1.00000000E+00
  3.34946043E-02  2.34726953E-01  8.13757326E-01  1.00000000E+00  3.34946043E-02
  2.34726953E-01  8.13757326E-01  1.00000000E+00  3.34946043E-02  2.34726953E-01
  8.13757326E-01  1.00000000E+00  3.34946043E-02  2.34726953E-01  8.13757326E-01
  1.00000000E+00
P(S=P) Contraction coefficients            R   N=          46
  0.00000000E+00  0.00000000E+00  0.00000000E+00  0.00000000E+00  0.00000000E+00
  0.00000000E+00  6.89990666E-02  3.16423961E-01  7.44308291E-01  1.00000000E+00
  1.00000000E+00  0.00000000E+00  0.00000000E+00  0.00000000E+00  0.00000000E+00
  0.00000000E+00  0.00000000E+00  6.89990666E-02  3.16423961E-01  7.44308291E-01
  1.00000000E+00  1.00000000E+00  0.00000000E+00  0.00000000E+00  0.00000000E+00
  0.00000000E+00  0.00000000E+00  0.00000000E+00  0.00000000E+00  0.00000000E+00
  0.00000000E+00  0.00000000E+00  0.00000000E+00  0.00000000E+00  0.00000000E+00
  0.00000000E+00  0.00000000E+00  0.00000000E+00  0.00000000E+00  0.00000000E+00
  0.00000000E+00  0.00000000E+00  0.00000000E+00  0.00000000E+00  0.00000000E+00
  0.00000000E+00
Coordinates of each shell                  R   N=          60
  1.44584308E+00 -5.69699512E-08  8.69744490E-08  1.44584308E+00 -5.69699512E-08
  8.69744490E-08  1.44584308E+00 -5.69699512E-08  8.69744490E-08  1.44584308E+00
 -5.69699512E-08  8.69744490E-08 -1.44584308E+00  6.29940165E-08 -6.66722742E-08
 -1.44584308E+00  6.29940165E-08 -6.66722742E-08 -1.44584308E+00  6.29940165E-08
 -6.66722742E-08 -1.44584308E+00  6.29940165E-08 -6.66722742E-08  2.18627141E+00
  4.24899873E-01 -1.86315058E+00  2.18627141E+00  4.24899873E-01 -1.86315058E+00
  2.18627149E+00 -1.82598577E+00  5.63601064E-01  2.18627149E+00 -1.82598577E+00
  5.63601064E-01  2.18627154E+00  1.40108610E+00  1.29954905E+00  2.18627154E+00
  1.40108610E+00  1.29954905E+00 -2.18627154E+00 -1.40108605E+00 -1.29954907E+00
 -2.18627154E+00 -1.40108605E+00 -1.29954907E+00 -2.18627149E+00  1.82598574E+00
 -5.63601162E-01 -2.18627149E+00  1.82598574E+00 -5.63601162E-01 -2.18627140E+00
 -4.24899923E-01  1.86315058E+00 -2.18627140E+00 -4.24899923E-01  1.86315058E+00
Constraint Structure                       R   N=          24
  1.44584308E+00 -5.69699512E-08  8.69744490E-08 -1.44584308E+00  6.29940165E-08
 -6.66722742E-08  2.18627141E+00  4.24899873E-01 -1.86315058E+00  2.18627149E+00
 -1.82598577E+00  5.63601064E-01  2.18627154E+00  1.40108610E+00  1.29954905E+00
 -2.18627154E+00 -1.40108605E+00 -1.29954907E+00 -2.18627149E+00  1.82598574E+00
 -5.63601162E-01 -2.18627140E+00 -4.24899923E-01  1.86315058E+00
Num ILSW                                   I              100
ILSW                                       I   N=         100
           0           1           0           0           2           0
           0           0           0           0           0          -1
           0           0           0           0           2           0
           0           0           0           0           1           0
           1           0           0           0           0           0
           0           0      100000           0          -1           0
           0           0           0           0           0           0
           0           0           0           1           0           0
           0           0           1           0           0           0
           0           0           4          41           0           0
           0           0           0           0           0           0
           0           0           0           8           0           0
           0           0           0           0           0           0
           0           0           0           0           0           0
           0           0           0           0           0           0
           0           0           0           0           0           0
           0           0           0           0
Num RLSW                                   I               41
RLSW                                       R   N=          41
  1.00000000E+00  1.00000000E+00  1.00000000E+00  1.00000000E+00  1.00000000E+00
  0.00000000E+00  0.00000000E+00  1.00000000E+00  0.00000000E+00  0.00000000E+00
  0.00000000E+00  0.00000000E+00  1.00000000E+00  0.00000000E+00  0.00000000E+00
  0.00000000E+00  0.00000000E+00  1.00000000E+00  0.00000000E+00  0.00000000E+00
  0.00000000E+00  0.00000000E+00  1.00000000E+00  0.00000000E+00  0.00000000E+00
  0.00000000E+00  0.00000000E+00  1.00000000E+00  0.00000000E+00  0.00000000E+00
  0.00000000E+00  0.00000000E+00  1.00000000E+00  0.00000000E+00  0.00000000E+00
  0.00000000E+00  0.00000000E+00  0.00000000E+00  1.00000000E+00  1.00000000E+00
  0.00000000E+00
MxBond                                     I                4
NBond                                      I   N=           8
           4           4           1           1           1           1
           1           1
IBond                                      I   N=          32
           2           3           4           5           1           6
           7           8           1           0           0           0
           1           0           0           0           1           0
           0           0           2           0           0           0
           2           0           0           0           2           0
           0           0
RBond                                      R   N=          32
  3.00000000E+00  1.00000000E+00  1.00000000E+00  1.00000000E+00  3.00000000E+00
  1.00000000E+00  1.00000000E+00  1.00000000E+00  1.00000000E+00  0.00000000E+00
  0.00000000E+00  0.00000000E+00  1.00000000E+00  0.00000000E+00  0.00000000E+00
  0.00000000E+00  1.00000000E+00  0.00000000E+00  0.00000000E+00  0.00000000E+00
  1.00000000E+00  0.00000000E+00  0.00000000E+00  0.00000000E+00  1.00000000E+00
  0.00000000E+00  0.00000000E+00  0.00000000E+00  1.00000000E+00  0.00000000E+00
  0.00000000E+00  0.00000000E+00
Virial Ratio                               R      1.998275554684893E+00
SCF Energy                                 R     -7.919842290631169E+01
Total Energy                               R     -7.919842290631169E+01
RMS Force                                  R      4.074465216285915E-05
RMS Density                                R      5.160444053061525E-10
External E-field                           R   N=          35
  0.00000000E+00  0.00000000E+00  0.00000000E+00  0.00000000E+00  0.00000000E+00
  0.00000000E+00  0.00000000E+00  0.00000000E+00  0.00000000E+00  0.00000000E+00
  0.00000000E+00  0.00000000E+00  0.00000000E+00  0.00000000E+00  0.00000000E+00
  0.00000000E+00  0.00000000E+00  0.00000000E+00  0.00000000E+00  0.00000000E+00
  0.00000000E+00  0.00000000E+00  0.00000000E+00  0.00000000E+00  0.00000000E+00
  0.00000000E+00  0.00000000E+00  0.00000000E+00  0.00000000E+00  0.00000000E+00
  0.00000000E+00  0.00000000E+00  0.00000000E+00  0.00000000E+00  0.00000000E+00
IOpCl                                      I                0
IROHF                                      I                0
Alpha Orbital Energies                     R   N=          38
 -1.12129424E+01 -1.12123820E+01 -1.02482831E+00 -8.49947091E-01 -6.00309162E-01
 -6.00309092E-01 -5.09037522E-01 -4.87047432E-01 -4.87047348E-01  9.48237981E-02
  9.57943910E-02  1.21915841E-01  1.21915850E-01  1.50101243E-01  1.50101251E-01
  1.52531550E-01  2.11476685E-01  3.45694170E-01  3.45694251E-01  3.52731705E-01
  3.52731738E-01  4.22118933E-01  4.32245929E-01  4.71448058E-01  8.61671790E-01
  8.67219763E-01  8.67219781E-01  9.28743281E-01  9.28743327E-01  9.81954874E-01
  1.27884597E+00  1.28133108E+00  1.28133119E+00  1.34679164E+00  1.34679185E+00
  1.39957944E+00  1.42282235E+00  1.72392622E+00
Alpha MO coefficients                      R   N=        1444
  7.04390031E-01  1.81511751E-02  1.03735740E-04  1.57611758E-10 -2.57585055E-10
 -1.09940333E-02 -1.33492759E-03 -8.36403216E-10  1.26131923E-09 -7.07041830E-04
 -1.83652682E-04 -3.41382388E-10  4.46276528E-10  7.04390031E-01  1.81511751E-02
 -1.03735740E-04 -1.76538753E-10  1.94060318E-10 -1.09940333E-02  1.33492759E-03
  8.89447531E-10 -1.08172502E-09 -7.07041830E-04  1.83652682E-04  3.57656634E-10
 -3.91415610E-10 -1.61177509E-04  3.06048794E-03 -1.61177664E-04  3.06048665E-03
 -1.61177615E-04  3.06048715E-03 -1.61177613E-04  3.06048723E-03 -1.61177664E-04
  3.06048666E-03 -1.61177511E-04  3.06048786E-03  7.04501827E-01  1.88385113E-02
 -3.56662514E-05  1.41507875E-10 -2.75852989E-10 -1.74131597E-02  2.48980724E-03
 -5.29117481E-10  1.13943253E-09 -3.91692665E-03  6.82436141E-04 -1.37933132E-10
  3.28939823E-10 -7.04501827E-01 -1.88385113E-02 -3.56662514E-05  1.65458166E-10
 -1.95977473E-10  1.74131597E-02  2.48980724E-03 -6.59090849E-10  7.07962814E-10
  3.91692665E-03  6.82436141E-04 -1.88610856E-10  1.61725611E-10  6.94411476E-05
  2.80341703E-03  6.94410727E-05  2.80341613E-03  6.94410819E-05  2.80341628E-03
 -6.94410998E-05 -2.80341649E-03 -6.94410728E-05 -2.80341613E-03 -6.94411295E-05
 -2.80341682E-03 -1.47643286E-01  2.78843396E-01 -5.50543449E-02  8.49519589E-09
 -1.52530253E-08  2.62480151E-01 -1.08757458E-03  1.17747492E-08 -1.75243994E-08
  9.85552304E-03 -3.61559387E-04  2.27397593E-09 -2.82669056E-09 -1.47643286E-01
  2.78843396E-01  5.50543449E-02 -9.67794848E-09  1.12846250E-08  2.62480151E-01
  1.08757458E-03 -1.25737545E-08  1.48131481E-08  9.85552303E-03  3.61559386E-04
 -2.36389833E-09  2.52458240E-09  8.63002130E-02  5.30102434E-03  8.63002144E-02
  5.30103740E-03  8.63002132E-02  5.30103173E-03  8.63002136E-02  5.30103134E-03
  8.63002144E-02  5.30103740E-03  8.63002127E-02  5.30102473E-03 -1.29717626E-01
  2.39632457E-01  1.25824330E-01  1.06279844E-08 -1.90556491E-08  3.32868696E-01
  1.67212264E-02  8.30388934E-09 -1.73870805E-08  8.52720145E-02 -1.75016495E-02
  1.22583122E-09 -2.34882535E-09  1.29717626E-01 -2.39632457E-01  1.25824330E-01
  1.23584839E-08 -1.33271544E-08 -3.32868696E-01  1.67212264E-02  1.03326925E-08
 -1.06390214E-08 -8.52720145E-02 -1.75016495E-02  1.46963530E-09 -1.54308367E-09
  1.18212339E-01  3.18151882E-02  1.18212340E-01  3.18151936E-02  1.18212342E-01
  3.18151939E-02 -1.18212343E-01 -3.18151925E-02 -1.18212340E-01 -3.18151935E-02
 -1.18212338E-01 -3.18151897E-02  6.55798947E-09 -1.80455396E-08 -3.36693026E-09
  3.11567972E-01  1.15291114E-03  7.83609626E-09 -7.41761753E-09  1.46624168E-01
  5.42561890E-04  4.75644922E-08 -1.33171051E-08  8.15391066E-03  3.01723565E-05
 -7.45651070E-09  2.01098585E-08  1.75518253E-09  3.11567955E-01  1.15288744E-03
 -6.40849817E-09 -5.10399190E-09  1.46624158E-01  5.42548022E-04 -4.77285481E-08
 -1.35021976E-08  8.15391025E-03  3.01717565E-05  4.06508530E-02  2.75620870E-02
 -1.77373520E-01 -1.20262790E-01  1.36722662E-01  9.27006891E-02 -1.36722644E-01
 -9.27006792E-02  1.77373513E-01  1.20262786E-01 -4.06508679E-02 -2.75620948E-02
 -1.03899591E-08  2.88485753E-08 -3.48731461E-10 -1.15288680E-03  3.11567955E-01
 -1.46530491E-08  9.16458030E-09 -5.42548763E-04  1.46624174E-01 -7.51760701E-08
  2.10475059E-08 -3.01717125E-05  8.15391451E-03  7.42080558E-09 -2.20062368E-08
  1.56529177E-08 -1.15291051E-03  3.11567972E-01  1.93758611E-08  1.64021007E-08
 -5.42562598E-04  1.46624184E-01  7.46445355E-08  2.04245856E-08 -3.01722877E-05
  8.15391492E-03 -1.81343498E-01 -1.22954535E-01  5.54670609E-02  3.76077911E-02
  1.25876429E-01  8.53467581E-02 -1.25876429E-01 -8.53467577E-02 -5.54670846E-02
 -3.76078037E-02  1.81343509E-01  1.22954541E-01  1.69987542E-02 -3.73608025E-02
  4.07068845E-01 -1.84327088E-08  1.58113619E-07 -3.65422107E-02  2.03866851E-01
 -5.25870738E-09  8.30216461E-08  1.50838319E-02  1.62186117E-02  1.72013561E-10
  6.82108468E-09  1.69987542E-02 -3.73608025E-02 -4.07068845E-01  2.23011843E-08
 -1.45953275E-07 -3.65422107E-02 -2.03866851E-01  7.62420549E-09 -7.55504402E-08
  1.50838319E-02 -1.62186117E-02  9.47519623E-11 -5.97303556E-09  8.40143020E-02
  6.81643222E-02  8.40144690E-02  6.81644589E-02  8.40144938E-02  6.81644787E-02
  8.40144854E-02  6.81644725E-02  8.40144690E-02  6.81644589E-02  8.40143104E-02
  6.81643284E-02  4.87224842E-09 -1.27732601E-08  1.78226275E-08  3.09768395E-01
  6.51435663E-03 -3.94676965E-09  1.48240798E-08  1.79570183E-01  3.77631947E-03
 -2.48530980E-09  4.33371243E-10  2.15644404E-02  4.53495395E-04  5.72680630E-09
 -1.52043687E-08 -1.68366684E-08 -3.09768412E-01 -6.51438006E-03 -3.12346989E-09
 -1.36727197E-08 -1.79570192E-01 -3.77633290E-03  8.58912004E-09  2.83289533E-09
 -2.15644415E-02 -4.53496912E-04  4.44128534E-02  3.87087065E-02 -2.08885226E-01
 -1.82057155E-01  1.64472387E-01  1.43348448E-01  1.64472404E-01  1.43348464E-01
 -2.08885232E-01 -1.82057162E-01  4.44128420E-02  3.87086942E-02 -1.79521976E-08
  4.41339398E-08 -1.98183235E-07 -6.51438034E-03  3.09768408E-01  2.52811073E-08
 -1.10021371E-07 -3.77633176E-03  1.79570187E-01 -2.90678731E-08 -1.85339251E-09
 -4.53496722E-04  2.15644525E-02 -1.53537466E-08  3.66744442E-08  2.01386461E-07
  6.51435693E-03 -3.09768391E-01  2.81758494E-08  1.13717028E-07  3.77631838E-03
 -1.79570177E-01  5.31075899E-09  1.19788491E-08  4.53495220E-04 -2.15644514E-02
 -2.15558176E-01 -1.87873126E-01  6.93163759E-02  6.04137929E-02  1.46241667E-01
  1.27459243E-01  1.46241670E-01  1.27459244E-01  6.93163599E-02  6.04137740E-02
 -2.15558163E-01 -1.87873116E-01 -3.21954072E-02  7.65638140E-02 -1.48915085E-03
  2.17860297E-09 -1.29989311E-09  1.05769524E-01  9.43062761E-02  2.48925421E-09
 -3.45489633E-09  9.46642597E+00 -3.67991147E+00  1.38913920E-07 -1.67034905E-07
  3.21954072E-02 -7.65638140E-02 -1.48915085E-03  2.70295790E-09  3.86718336E-10
 -1.05769524E-01  9.43062761E-02  3.15220546E-09 -1.22591955E-09 -9.46642597E+00
 -3.67991147E+00  1.33137777E-07 -1.86036762E-07  7.87289278E-03  8.38310527E-03
  7.87289235E-03  8.38311616E-03  7.87289136E-03  8.38311467E-03 -7.87289087E-03
 -8.38311522E-03 -7.87289235E-03 -8.38311612E-03 -7.87289326E-03 -8.38310476E-03
  3.76027831E-02 -6.11842245E-02 -8.33579860E-02 -6.54706557E-09  1.48611087E-08
 -2.17898541E-01 -6.66537879E-02  4.29059298E-08 -5.25137616E-08  1.01978961E+00
  4.23740373E-01  6.43388659E-08 -6.77435920E-08  3.76027831E-02 -6.11842245E-02
  8.33579860E-02  8.32568455E-09 -8.84366883E-09 -2.17898541E-01  6.66537879E-02
 -4.38135152E-08  4.95346473E-08  1.01978961E+00 -4.23740373E-01 -7.46821946E-08
  3.32553011E-08  3.76995008E-03 -2.41289194E-01  3.76994787E-03 -2.41289117E-01
  3.76994811E-03 -2.41289151E-01  3.76994846E-03 -2.41289163E-01  3.76994789E-03
 -2.41289117E-01  3.76994971E-03 -2.41289181E-01  3.53738357E-11 -1.00828484E-08
 -4.62860766E-09 -9.70571296E-02  7.46164722E-04  5.51657970E-08 -1.14383606E-08
 -1.70905853E-01  1.31391251E-03  1.70800043E-06 -4.92446484E-07  6.73961363E-01
 -5.18132154E-03  3.39982915E-10  1.00354262E-08 -3.60009179E-09 -9.70571273E-02
  7.46168134E-04 -6.00770673E-08 -8.21516149E-09 -1.70905859E-01  1.31390327E-03
 -1.69787700E-06 -5.06805644E-07  6.73961318E-01 -5.18138786E-03 -1.94020611E-03
 -4.72858804E-02  8.08517837E-03  1.97048021E-01 -6.14496494E-03 -1.49762286E-01
  6.14496523E-03  1.49762267E-01 -8.08517884E-03 -1.97048015E-01  1.94020540E-03
  4.72858937E-02  5.10946343E-10  1.69701187E-08  8.66496073E-10 -7.46168224E-04
 -9.70571216E-02 -1.00319111E-07  9.13938960E-09 -1.31390557E-03 -1.70905902E-01
 -2.43621818E-06  7.45428720E-07  5.18138714E-03  6.73961305E-01  7.76036345E-10
 -1.71023910E-08  4.37238234E-09 -7.46164824E-04 -9.70571239E-02  8.33420755E-08
  2.02341863E-08 -1.31391487E-03 -1.70905896E-01  2.47056390E-06  6.95262186E-07
  5.18132061E-03  6.73961351E-01  8.21578054E-03  2.00231061E-01 -2.42762497E-03
 -5.91646809E-02 -5.78816709E-03 -1.41066150E-01  5.78816620E-03  1.41066147E-01
  2.42762340E-03  5.91647013E-02 -8.21578112E-03 -2.00231074E-01  1.29625580E-08
 -1.48400368E-08  4.89390411E-09 -7.46587366E-02 -7.19876282E-04 -1.18716221E-07
  6.85315460E-08 -2.73693196E-02 -2.63892664E-04 -6.95959192E-08 -5.29293581E-07
  2.06082019E+00  1.98708713E-02  1.30797237E-08 -1.65731767E-08 -4.32884146E-09
  7.46587375E-02  7.19877620E-04 -1.11230590E-07 -6.81506760E-08  2.73693289E-02
  2.63905914E-04  2.34703063E-07  6.22007717E-07 -2.06082020E+00 -1.98708877E-02
 -3.99752161E-03 -7.20714191E-02  1.78842262E-02  3.22433792E-01 -1.38866715E-02
 -2.50362592E-01 -1.38866732E-02 -2.50362599E-01  1.78842274E-02  3.22433784E-01
 -3.99751966E-03 -7.20714270E-02 -1.65746319E-08  2.23586145E-08 -2.79752548E-09
  7.19874817E-04 -7.46587087E-02  1.36458770E-07 -7.64464222E-08  2.63910383E-04
 -2.73694566E-02 -6.16077381E-07  8.84821037E-07 -1.98708762E-02  2.06082009E+00
 -1.61916414E-08  1.67898960E-08  4.50795535E-09 -7.19873530E-04  7.46587077E-02
  1.60418548E-07  7.78687037E-08 -2.63897294E-04  2.73694473E-02  3.58463781E-07
 -5.87821006E-07  1.98708599E-02 -2.06082007E+00  1.83429343E-02  3.30704176E-01
 -5.70952389E-03 -1.02936302E-01 -1.26334535E-02 -2.27767511E-01 -1.26334524E-02
 -2.27767536E-01 -5.70952031E-03 -1.02936327E-01  1.83429341E-02  3.30704151E-01
 -3.21809223E-02  2.63881817E-02 -1.90626397E-02 -2.75269870E-08  2.87470902E-08
  3.34543706E-01 -1.29640939E-01 -5.62342630E-08  8.52293038E-08 -1.80050353E-01
  1.34220178E+00  8.99447468E-07 -1.11883684E-06 -3.21809223E-02  2.63881817E-02
  1.90626397E-02  2.79022352E-08 -2.76021343E-08  3.34543706E-01  1.29640939E-01
  6.00754349E-08 -7.23195209E-08 -1.80050353E-01 -1.34220178E+00 -9.02865677E-07
  1.10715893E-06 -2.14106045E-02  1.08514088E-01 -2.14105823E-02  1.08514381E-01
 -2.14105914E-02  1.08514236E-01 -2.14105907E-02  1.08514240E-01 -2.14105823E-02
  1.08514381E-01 -2.14106052E-02  1.08514084E-01  3.63262482E-02 -8.15039919E-02
 -3.93212341E-02 -9.41251922E-10  4.70009793E-09 -5.56475554E-02 -1.89836283E-01
  5.82703540E-08 -1.13703841E-07  2.85266126E+01 -8.60132561E+00  3.58070724E-07
 -4.40374372E-07 -3.63262482E-02  8.15039919E-02 -3.93212341E-02 -1.48651982E-09
  2.82361628E-09  5.56475555E-02 -1.89836283E-01  7.03534956E-08 -7.36230423E-08
 -2.85266126E+01 -8.60132561E+00  3.49776532E-07 -4.67816865E-07  2.03244390E-02
 -3.97804533E-01  2.03244327E-02 -3.97804468E-01  2.03244343E-02 -3.97804486E-01
 -2.03244341E-02  3.97804499E-01 -2.03244327E-02  3.97804468E-01 -2.03244392E-02
  3.97804521E-01 -2.94320700E-08  2.14488208E-08  4.85592973E-08 -1.00738378E-02
  1.83998613E-01  6.95439295E-07  2.92452872E-07 -8.08521176E-02  1.47676861E+00
  8.56464668E-07 -2.14813568E-07 -2.57408750E-02  4.70158793E-01 -2.21549156E-08
  1.64987143E-08 -2.89003801E-08  1.00736547E-02 -1.83998473E-01  5.58472838E-07
 -1.78997181E-07  8.08512788E-02 -1.47676797E+00 -4.35551750E-07 -1.53103823E-07
  2.57406254E-02 -4.70158603E-01  4.86139601E-02  1.54751294E+00 -1.71007127E-02
 -5.44360448E-01 -3.15133014E-02 -1.00315373E+00 -3.15133184E-02 -1.00315390E+00
 -1.71005706E-02 -5.44358704E-01  4.86138574E-02  1.54751174E+00  1.81483573E-08
 -1.35248582E-08 -1.98502787E-08  1.83998445E-01  1.00736611E-02 -4.18367522E-07
 -1.20114372E-07  1.47676875E+00  8.08513106E-02  6.12717073E-08  7.51980862E-09
  4.70159409E-01  2.57406731E-02  2.07765838E-08 -1.52485027E-08  2.70712342E-08
 -1.83998585E-01 -1.00738360E-02 -4.68195666E-07  1.61099748E-07 -1.47676939E+00
 -8.08521098E-02 -4.11814169E-07 -1.42439373E-07 -4.70159600E-01 -2.57409108E-02
 -8.32119046E-03 -2.64885406E-01  4.62614401E-02  1.47262850E+00 -3.79402216E-02
 -1.20774235E+00 -3.79403570E-02 -1.20774396E+00  4.62614940E-02  1.47262916E+00
 -8.32110065E-03 -2.64884316E-01  2.84882763E-08 -3.63221438E-08  2.35583749E-08
 -9.40418113E-03 -1.92821680E-01 -4.14208638E-07 -2.19931215E-08 -4.51511889E-02
 -9.25764825E-01 -4.38086233E-07  5.52012334E-08 -1.39365605E-02 -2.85749935E-01
 -2.47539262E-08  3.15398253E-08  2.88186674E-08 -9.40400248E-03 -1.92821794E-01
  3.47074575E-07  5.82884845E-09 -4.51496801E-02 -9.25765788E-01  4.13076358E-07
  3.34734657E-08 -1.39360397E-02 -2.85750267E-01 -1.13476565E-01 -1.44325075E+00
  2.92276714E-02  3.71731421E-01  8.42489307E-02  1.07151984E+00 -8.42489135E-02
 -1.07151932E+00 -2.92277183E-02 -3.71733203E-01  1.13476607E-01  1.44325213E+00
  1.27003164E-08 -1.98853598E-08  4.86436200E-09  1.92821791E-01 -9.40400146E-03
 -1.65404872E-07 -5.75074865E-08  9.25766054E-01 -4.51496421E-02 -6.26048830E-07
  1.59374338E-07  2.85750402E-01 -1.39360255E-02 -1.36229261E-08  2.10925328E-08
  3.63359418E-09  1.92821677E-01 -9.40418817E-03  1.81695326E-07 -6.40776371E-08
  9.25765088E-01 -4.51512151E-02  6.32415505E-07  1.65228147E-07  2.85750069E-01
 -1.39365678E-02 -3.17664853E-02 -4.04021636E-01  1.14156860E-01  1.45190434E+00
 -8.23903494E-02 -1.04788241E+00  8.23902960E-02  1.04788052E+00 -1.14156848E-01
 -1.45190387E+00  3.17665233E-02  4.04023017E-01  5.61351271E-02 -3.92022718E-02
  2.88734564E-01  6.48711361E-09 -1.52370734E-08 -1.12904235E+00  1.96372013E+00
 -3.94766135E-08  8.90707221E-09  7.53144447E+00 -2.41709331E+00  1.13199504E-07
 -1.66956361E-07 -5.61351271E-02  3.92022718E-02  2.88734564E-01  1.20269786E-08
  3.15744287E-09  1.12904235E+00  1.96372013E+00  7.96853730E-09  1.64403956E-07
 -7.53144447E+00 -2.41709331E+00  1.36927802E-07 -8.99830637E-08 -4.58105028E-02
 -5.16646673E-01 -4.58104983E-02 -5.16646731E-01 -4.58105018E-02 -5.16646755E-01
  4.58105028E-02  5.16646893E-01  4.58104983E-02  5.16646731E-01  4.58105018E-02
  5.16646536E-01 -9.17268456E-02  1.03588594E-01  1.06341007E-01  6.36663678E-08
 -9.06006538E-08  2.09877669E+00  8.09578591E-01  5.58086450E-07 -7.69335482E-07
  1.14894528E+00 -3.99566784E-01  3.26937127E-07 -4.02288551E-07 -9.17268456E-02
  1.03588594E-01 -1.06341007E-01 -6.86142506E-08  7.38704109E-08  2.09877669E+00
 -8.09578591E-01 -5.85242374E-07  6.78150491E-07  1.14894528E+00  3.99566784E-01
 -3.39903453E-07  3.58840884E-07 -2.45457493E-02 -1.53943480E+00 -2.45457270E-02
 -1.53943339E+00 -2.45457344E-02 -1.53943399E+00 -2.45457347E-02 -1.53943407E+00
 -2.45457270E-02 -1.53943339E+00 -2.45457490E-02 -1.53943472E+00 -1.31562622E-01
  5.35144853E-02  1.84663435E-02  4.43062550E-08 -1.01803126E-07  3.13674631E+00
 -2.97367412E-01  2.05917544E-07 -5.29426924E-07  1.59523911E+01 -4.21884722E+00
  2.67698795E-07 -4.95839543E-07  1.31562622E-01 -5.35144853E-02  1.84663435E-02
  5.38568391E-08 -7.02002088E-08 -3.13674631E+00 -2.97367412E-01  2.77980185E-07
 -2.90502299E-07 -1.59523911E+01 -4.21884722E+00  3.15871631E-07 -3.36651252E-07
 -3.04418336E-02 -1.55473931E+00 -3.04418390E-02 -1.55473844E+00 -3.04418356E-02
 -1.55473856E+00  3.04418350E-02  1.55473876E+00  3.04418390E-02  1.55473844E+00
  3.04418341E-02  1.55473911E+00  5.70951193E-03 -1.41892890E-02 -6.96713397E-01
  3.30574927E-08 -2.23866590E-07  6.66176869E-01  1.20618675E+00 -3.51735701E-08
  2.69773730E-07 -7.70559876E-02 -6.51681725E-01  7.58787918E-08 -1.33125181E-07
  5.70951193E-03 -1.41892890E-02  6.96713397E-01 -1.34011304E-07 -1.15592984E-07
  6.66176869E-01 -1.20618675E+00  1.71322376E-07  1.88766005E-07 -7.70559876E-02
  6.51681725E-01 -1.27432530E-07 -3.99123866E-08 -1.37401877E-01 -1.70746360E-01
 -1.37402012E-01 -1.70746300E-01 -1.37402060E-01 -1.70746301E-01 -1.37401890E-01
 -1.70746384E-01 -1.37402010E-01 -1.70746301E-01 -1.37402049E-01 -1.70746276E-01
 -2.50929070E-09  3.15055852E-08  1.41054414E-07 -6.21040293E-01 -8.73097056E-02
  4.01972094E-08 -2.24231252E-07  8.85001135E-01  1.24418940E-01  1.59753507E-06