untitled_22                                                             
Freq      RHF                                                         6-31+G              
Number of atoms                            I                9
Info1-9                                    I   N=           9
          19          16        1002           0           0         100
           6           1           2
Charge                                     I                0
Multiplicity                               I                1
Number of electrons                        I               26
Number of alpha electrons                  I               13
Number of beta electrons                   I               13
Number of basis functions                  I               51
Number of independent functions            I               51
Number of point charges in /Mol/           I                0
Number of translation vectors              I                0
Atomic numbers                             I   N=           9
           6           6           1           1           1           1
           1           8           1
Nuclear charges                            R   N=           9
  6.00000000E+00  6.00000000E+00  1.00000000E+00  1.00000000E+00  1.00000000E+00
  1.00000000E+00  1.00000000E+00  8.00000000E+00  1.00000000E+00
Current cartesian coordinates              R   N=          27
 -2.29758154E+00 -4.71308420E-01 -3.15641801E-02  1.23367436E-01  1.06908032E+00
  8.50186693E-02 -3.93854433E+00  7.53131343E-01  7.90955890E-02 -2.40725619E+00
 -1.80615070E+00  1.52236400E+00 -2.38899739E+00 -1.52260830E+00 -1.78447675E+00
  2.42879381E-01  2.12248578E+00  1.83899238E+00  2.25471271E-01  2.39235451E+00
 -1.46024188E+00  2.33813427E+00 -4.84771392E-01 -2.06637847E-01  2.60665775E+00
 -1.64767289E+00  1.13664250E+00
Force Field                                I                0
Int Atom Types                             I   N=           9
           0           0           0           0           0           0
           0           0           0
MM charges                                 R   N=           9
  0.00000000E+00  0.00000000E+00  0.00000000E+00  0.00000000E+00  0.00000000E+00
  0.00000000E+00  0.00000000E+00  0.00000000E+00  0.00000000E+00
Integer atomic weights                     I   N=           9
          12          12           1           1           1           1
           1          16           1
Real atomic weights                        R   N=           9
  1.20000000E+01  1.20000000E+01  1.00782504E+00  1.00782504E+00  1.00782504E+00
  1.00782504E+00  1.00782504E+00  1.59949146E+01  1.00782504E+00
Atom fragment info                         I   N=           9
           0           0           0           0           0           0
           0           0           0
Atom residue num                           I   N=           9
           0           0           0           0           0           0
           0           0           0
Nuclear spins                              I   N=           9
           0           0           1           1           1           1
           1           0           1
Nuclear ZEff                               R   N=           9
 -3.60000000E+00 -3.60000000E+00 -1.00000000E+00 -1.00000000E+00 -1.00000000E+00
 -1.00000000E+00 -1.00000000E+00 -5.60000000E+00 -1.00000000E+00
Nuclear ZNuc                               R   N=           9
  6.00000000E+00  6.00000000E+00  1.00000000E+00  1.00000000E+00  1.00000000E+00
  1.00000000E+00  1.00000000E+00  8.00000000E+00  1.00000000E+00
Nuclear QMom                               R   N=           9
  0.00000000E+00  0.00000000E+00  0.00000000E+00  0.00000000E+00  0.00000000E+00
  0.00000000E+00  0.00000000E+00  0.00000000E+00  0.00000000E+00
Nuclear GFac                               R   N=           9
  0.00000000E+00  0.00000000E+00  2.79284600E+00  2.79284600E+00  2.79284600E+00
  2.79284600E+00  2.79284600E+00  0.00000000E+00  2.79284600E+00
MicOpt                                     I   N=           9
          -1          -1          -1          -1          -1          -1
          -1          -1          -1
Number of contracted shells                I               24
Number of primitive shells                 I               57
Pure/Cartesian d shells                    I                1
Pure/Cartesian f shells                    I                0
Highest angular momentum                   I                1
Largest degree of contraction              I                6
Shell types                                I   N=          24
           0          -1          -1          -1           0          -1
          -1          -1           0           0           0           0
           0           0           0           0           0           0
           0          -1          -1          -1           0           0
Number of primitives per shell             I   N=          24
           6           3           1           1           6           3
           1           1           3           1           3           1
           3           1           3           1           3           1
           6           3           1           1           3           1
Shell to atom map                          I   N=          24
           1           1           1           1           2           2
           2           2           3           3           4           4
           5           5           6           6           7           7
           8           8           8           8           9           9
Primitive exponents                        R   N=          57
  3.04752488E+03  4.57369518E+02  1.03948685E+02  2.92101553E+01  9.28666296E+00
  3.16392696E+00  7.86827235E+00  1.88128854E+00  5.44249258E-01  1.68714478E-01
  4.38000000E-02  3.04752488E+03  4.57369518E+02  1.03948685E+02  2.92101553E+01
  9.28666296E+00  3.16392696E+00  7.86827235E+00  1.88128854E+00  5.44249258E-01
  1.68714478E-01  4.38000000E-02  1.87311370E+01  2.82539436E+00  6.40121692E-01
  1.61277759E-01  1.87311370E+01  2.82539436E+00  6.40121692E-01  1.61277759E-01
  1.87311370E+01  2.82539436E+00  6.40121692E-01  1.61277759E-01  1.87311370E+01
  2.82539436E+00  6.40121692E-01  1.61277759E-01  1.87311370E+01  2.82539436E+00
  6.40121692E-01  1.61277759E-01  5.48467166E+03  8.25234946E+02  1.88046958E+02
  5.29645000E+01  1.68975704E+01  5.79963534E+00  1.55396162E+01  3.59993359E+00
  1.01376175E+00  2.70005823E-01  8.45000000E-02  1.87311370E+01  2.82539436E+00
  6.40121692E-01  1.61277759E-01
Contraction coefficients                   R   N=          57
  1.83473713E-03  1.40373228E-02  6.88426223E-02  2.32184443E-01  4.67941348E-01
  3.62311985E-01 -1.19332420E-01 -1.60854152E-01  1.14345644E+00  1.00000000E+00
  1.00000000E+00  1.83473713E-03  1.40373228E-02  6.88426223E-02  2.32184443E-01
  4.67941348E-01  3.62311985E-01 -1.19332420E-01 -1.60854152E-01  1.14345644E+00
  1.00000000E+00  1.00000000E+00  3.34946043E-02  2.34726953E-01  8.13757326E-01
  1.00000000E+00  3.34946043E-02  2.34726953E-01  8.13757326E-01  1.00000000E+00
  3.34946043E-02  2.34726953E-01  8.13757326E-01  1.00000000E+00  3.34946043E-02
  2.34726953E-01  8.13757326E-01  1.00000000E+00  3.34946043E-02  2.34726953E-01
  8.13757326E-01  1.00000000E+00  1.83107443E-03  1.39501722E-02  6.84450781E-02
  2.32714336E-01  4.70192898E-01  3.58520853E-01 -1.10777550E-01 -1.48026263E-01
  1.13076702E+00  1.00000000E+00  1.00000000E+00  3.34946043E-02  2.34726953E-01
  8.13757326E-01  1.00000000E+00
P(S=P) Contraction coefficients            R   N=          57
  0.00000000E+00  0.00000000E+00  0.00000000E+00  0.00000000E+00  0.00000000E+00
  0.00000000E+00  6.89990666E-02  3.16423961E-01  7.44308291E-01  1.00000000E+00
  1.00000000E+00  0.00000000E+00  0.00000000E+00  0.00000000E+00  0.00000000E+00
  0.00000000E+00  0.00000000E+00  6.89990666E-02  3.16423961E-01  7.44308291E-01
  1.00000000E+00  1.00000000E+00  0.00000000E+00  0.00000000E+00  0.00000000E+00
  0.00000000E+00  0.00000000E+00  0.00000000E+00  0.00000000E+00  0.00000000E+00
  0.00000000E+00  0.00000000E+00  0.00000000E+00  0.00000000E+00  0.00000000E+00
  0.00000000E+00  0.00000000E+00  0.00000000E+00  0.00000000E+00  0.00000000E+00
  0.00000000E+00  0.00000000E+00  0.00000000E+00  0.00000000E+00  0.00000000E+00
  0.00000000E+00  0.00000000E+00  0.00000000E+00  7.08742682E-02  3.39752839E-01
  7.27158577E-01  1.00000000E+00  1.00000000E+00  0.00000000E+00  0.00000000E+00
  0.00000000E+00  0.00000000E+00
Coordinates of each shell                  R   N=          72
 -2.29758154E+00 -4.71308420E-01 -3.15641801E-02 -2.29758154E+00 -4.71308420E-01
 -3.15641801E-02 -2.29758154E+00 -4.71308420E-01 -3.15641801E-02 -2.29758154E+00
 -4.71308420E-01 -3.15641801E-02  1.23367436E-01  1.06908032E+00  8.50186693E-02
  1.23367436E-01  1.06908032E+00  8.50186693E-02  1.23367436E-01  1.06908032E+00
  8.50186693E-02  1.23367436E-01  1.06908032E+00  8.50186693E-02 -3.93854433E+00
  7.53131343E-01  7.90955890E-02 -3.93854433E+00  7.53131343E-01  7.90955890E-02
 -2.40725619E+00 -1.80615070E+00  1.52236400E+00 -2.40725619E+00 -1.80615070E+00
  1.52236400E+00 -2.38899739E+00 -1.52260830E+00 -1.78447675E+00 -2.38899739E+00
 -1.52260830E+00 -1.78447675E+00  2.42879381E-01  2.12248578E+00  1.83899238E+00
  2.42879381E-01  2.12248578E+00  1.83899238E+00  2.25471271E-01  2.39235451E+00
 -1.46024188E+00  2.25471271E-01  2.39235451E+00 -1.46024188E+00  2.33813427E+00
 -4.84771392E-01 -2.06637847E-01  2.33813427E+00 -4.84771392E-01 -2.06637847E-01
  2.33813427E+00 -4.84771392E-01 -2.06637847E-01  2.33813427E+00 -4.84771392E-01
 -2.06637847E-01  2.60665775E+00 -1.64767289E+00  1.13664250E+00  2.60665775E+00
 -1.64767289E+00  1.13664250E+00
Constraint Structure                       R   N=          27
 -2.29758154E+00 -4.71308420E-01 -3.15641801E-02  1.23367436E-01  1.06908032E+00
  8.50186693E-02 -3.93854433E+00  7.53131343E-01  7.90955890E-02 -2.40725619E+00
 -1.80615070E+00  1.52236400E+00 -2.38899739E+00 -1.52260830E+00 -1.78447675E+00
  2.42879381E-01  2.12248578E+00  1.83899238E+00  2.25471271E-01  2.39235451E+00
 -1.46024188E+00  2.33813427E+00 -4.84771392E-01 -2.06637847E-01  2.60665775E+00
 -1.64767289E+00  1.13664250E+00
Num ILSW                                   I              100
ILSW                                       I   N=         100
           0           1           0           0           2           0
           0           0           0           0           0          -1
           0           0           0           0           2           0
           0           0           0           0           1           0
           1           0           0           0           0           0
           0           0      100000           0          -1           0
           0           0           0           0           0           0
           0           0           0           1           0           0
           0           0           1           0           0           0
           0           0           4          41           0           0
           0           0           0           0           0           0
           0           0           0           9           0           0
           0           0           0           0           0           0
           0           0           0           0           0           0
           0           0           0           0           0           0
           0           0           0           0           0           0
           0           0           0           0
Num RLSW                                   I               41
RLSW                                       R   N=          41
  1.00000000E+00  1.00000000E+00  1.00000000E+00  1.00000000E+00  1.00000000E+00
  0.00000000E+00  0.00000000E+00  1.00000000E+00  0.00000000E+00  0.00000000E+00
  0.00000000E+00  0.00000000E+00  1.00000000E+00  0.00000000E+00  0.00000000E+00
  0.00000000E+00  0.00000000E+00  1.00000000E+00  0.00000000E+00  0.00000000E+00
  0.00000000E+00  0.00000000E+00  1.00000000E+00  0.00000000E+00  0.00000000E+00
  0.00000000E+00  0.00000000E+00  1.00000000E+00  0.00000000E+00  0.00000000E+00
  0.00000000E+00  0.00000000E+00  1.00000000E+00  0.00000000E+00  0.00000000E+00
  0.00000000E+00  0.00000000E+00  0.00000000E+00  1.00000000E+00  1.00000000E+00
  0.00000000E+00
MxBond                                     I                4
NBond                                      I   N=           9
           4           4           1           1           1           1
           1           2           1
IBond                                      I   N=          36
           2           3           4           5           1           6
           7           8           1           0           0           0
           1           0           0           0           1           0
           0           0           2           0           0           0
           2           0           0           0           2           9
           0           0           8           0           0           0
RBond                                      R   N=          36
  3.00000000E+00  1.00000000E+00  1.00000000E+00  1.00000000E+00  3.00000000E+00
  1.00000000E+00  1.00000000E+00  3.00000000E+00  1.00000000E+00  0.00000000E+00
  0.00000000E+00  0.00000000E+00  1.00000000E+00  0.00000000E+00  0.00000000E+00
  0.00000000E+00  1.00000000E+00  0.00000000E+00  0.00000000E+00  0.00000000E+00
  1.00000000E+00  0.00000000E+00  0.00000000E+00  0.00000000E+00  1.00000000E+00
  0.00000000E+00  0.00000000E+00  0.00000000E+00  3.00000000E+00  1.00000000E+00
  0.00000000E+00  0.00000000E+00  1.00000000E+00  0.00000000E+00  0.00000000E+00
  0.00000000E+00
Virial Ratio                               R      1.999358211302629E+00
SCF Energy                                 R     -1.540185983819839E+02
Total Energy                               R     -1.540185983819839E+02
RMS Force                                  R      5.165097749869404E-06
RMS Density                                R      4.311509677626248E-10
External E-field                           R   N=          35
  0.00000000E+00  0.00000000E+00  0.00000000E+00  0.00000000E+00  0.00000000E+00
  0.00000000E+00  0.00000000E+00  0.00000000E+00  0.00000000E+00  0.00000000E+00
  0.00000000E+00  0.00000000E+00  0.00000000E+00  0.00000000E+00  0.00000000E+00
  0.00000000E+00  0.00000000E+00  0.00000000E+00  0.00000000E+00  0.00000000E+00
  0.00000000E+00  0.00000000E+00  0.00000000E+00  0.00000000E+00  0.00000000E+00
  0.00000000E+00  0.00000000E+00  0.00000000E+00  0.00000000E+00  0.00000000E+00
  0.00000000E+00  0.00000000E+00  0.00000000E+00  0.00000000E+00  0.00000000E+00
IOpCl                                      I                0
IROHF                                      I                0
Alpha Orbital Energies                     R   N=          51
 -2.05595199E+01 -1.12848398E+01 -1.12234806E+01 -1.36112037E+00 -1.02764261E+00
 -8.62956012E-01 -6.90284662E-01 -6.29759330E-01 -6.05972313E-01 -5.47068559E-01
 -5.26508376E-01 -4.77683220E-01 -4.45085062E-01  8.42524721E-02  9.50785318E-02
  9.99731513E-02  1.15593388E-01  1.37083014E-01  1.44327449E-01  1.48389066E-01
  2.04360278E-01  2.51076973E-01  2.88786499E-01  3.18803996E-01  3.48581560E-01
  3.60698658E-01  3.78536769E-01  3.92920914E-01  4.15614765E-01  4.26609483E-01
  4.41607308E-01  4.74250019E-01  4.95836749E-01  8.54712711E-01  8.68155777E-01
  8.94566434E-01  9.44651901E-01  9.82787656E-01  9.92135202E-01  1.25363947E+00
  1.29683015E+00  1.31604066E+00  1.33108821E+00  1.38341245E+00  1.39884412E+00
  1.41127165E+00  1.52704438E+00  1.58809806E+00  1.63031596E+00  1.74063105E+00
  2.14650226E+00
Alpha MO coefficients                      R   N=        2601
  1.24165797E-05 -8.86907561E-05 -1.57543790E-04 -2.32171908E-05  1.04902738E-05
 -7.59959787E-04 -6.92217261E-04 -1.17804396E-04 -1.32861044E-04  4.23605856E-03
  1.32694969E-03  2.99508807E-05 -6.11859947E-05 -1.20478118E-05 -1.72290819E-04
  4.14975837E-04 -2.34332666E-04 -3.67641789E-05  3.17786770E-03  6.35698667E-04
 -1.07228237E-03  1.01683821E-04 -6.92838551E-03 -6.67743351E-04  2.31314178E-03
  2.93027130E-04  3.23067020E-06 -1.40712416E-04  8.36199240E-05 -2.60519430E-04
  4.91395823E-05 -3.83725575E-04 -2.69839034E-04 -6.01962700E-04 -1.63455885E-04
 -6.52192945E-04  9.95831820E-01  2.30700903E-02 -1.16997859E-03 -8.31976526E-05
  1.43572125E-03 -1.16270374E-02  1.81322350E-03 -5.48227708E-04 -1.19435360E-03
  6.67046941E-03 -1.08971955E-03  8.47015570E-04  2.28440688E-05  2.57735985E-04
  1.10112242E-03  4.85596906E-03 -2.58767944E-04  6.05562691E-05 -5.95485219E-05
 -4.59978522E-06  4.25881170E-03  1.79181485E-03  1.36397407E-03  6.51670368E-05
  2.16688839E-03  2.15798292E-04  3.44053990E-04  7.01888290E-05  9.96338766E-01
  2.62742347E-02  6.77684695E-04 -5.33590502E-04 -1.41066154E-06 -2.11368471E-02
 -5.12116753E-04  1.28509690E-03  2.45143881E-04 -5.11736591E-03 -1.99921180E-04
  5.62643511E-04 -1.18868544E-05 -1.25973518E-04 -1.95068515E-04 -1.45369487E-04
  5.17690098E-05 -1.39650853E-04 -1.70064131E-07  9.28533115E-05  3.41253665E-03
  1.49430424E-04  3.50954814E-03 -5.79090481E-05  2.89164714E-04 -4.74011103E-05
  4.38526269E-05  1.21835146E-05  9.08446190E-04 -7.00106378E-04  2.81589354E-04
  1.47456506E-04  7.05190037E-03 -2.06722333E-03  1.22584121E-03  6.32723437E-04
  4.32689612E-05 -6.93594063E-04  9.96215126E-01  2.63557331E-02  2.75312017E-05
 -1.00594094E-06  5.76940377E-05 -2.04325628E-02 -1.05180192E-03 -3.77835461E-04
  2.21067294E-05 -3.02496676E-03 -4.01258924E-04 -1.37291688E-04  8.38457792E-05
 -5.00274985E-03 -4.28936068E-04  8.59677094E-05  3.63746730E-05  9.05741328E-06
  3.88197126E-03 -2.70291740E-03 -1.24025338E-03 -2.04004801E-04  1.22041222E-03
 -5.38707277E-04  4.69654128E-06 -1.60438458E-04 -7.12857603E-05  3.93100743E-03
 -6.81183041E-05  4.18238835E-03 -3.07559995E-05  4.25488841E-03 -1.17322346E-04
  1.46159187E-04 -1.46610980E-04  1.23870219E-04 -3.23082930E-09 -1.32171494E-04
  1.06812618E-04  2.02301887E-05 -2.61375100E-05  3.40990160E-05 -2.03088994E-04
 -3.25822303E-05  2.06490732E-04  2.45127331E-03 -6.14244549E-04 -2.18471250E-06
  4.84994304E-04 -6.37425867E-05 -8.94174719E-04 -1.55917172E-02  3.27759205E-02
  2.05682217E-02  5.62381103E-03  4.50316000E-04  8.83760015E-03  8.03460319E-04
 -3.65884264E-03 -1.33641161E-03 -7.48073332E-02 -2.26391477E-02 -3.96062859E-03
  1.11918716E-03 -7.05714852E-02  1.36629055E-01  6.79605322E-02 -5.35333344E-02
 -5.44972821E-03  4.40083599E-02 -2.07116616E-02  1.02459002E-02  7.31244162E-03
  1.01037733E-01  1.27305974E-03 -2.89782932E-02 -4.27742011E-03  4.47884879E-03
  4.10350254E-05  6.14516846E-03  4.03587466E-03  6.31595286E-03  3.52496596E-03
  2.50090402E-02 -3.41182133E-03  2.47473326E-02  8.15445044E-03 -2.05928436E-01
  4.45469177E-01 -5.76662684E-02 -9.58062804E-03  7.62134882E-02  4.99074898E-01
 -5.15960695E-02  8.50177868E-03  4.49179625E-02 -2.67909611E-02  1.15233253E-02
 -1.62614148E-02  8.72438472E-03  1.35514087E-01 -3.24465181E-02 -1.57220332E-01
  2.96368927E-01  4.02436100E-02  3.35785369E-02  3.53451193E-03  2.89197777E-01
  2.14920459E-03  4.95781852E-03 -1.10613751E-03  4.87432439E-02  1.25088223E-02
  3.87315646E-03 -1.92455072E-03 -1.24945153E-01  2.43176363E-01 -9.55619053E-02
 -1.20835371E-02 -3.08838893E-03  2.38648826E-01 -3.39694927E-03 -4.53071795E-03
  7.39294117E-03 -2.50449666E-02  6.46919864E-03  7.46042840E-03  3.98595044E-03
  9.64106768E-02  7.44166988E-03  9.29323657E-02  8.57485949E-03  9.17393161E-02
  3.32281793E-03  7.61299860E-02  4.33190186E-03  7.84725764E-02  9.67605524E-03
  5.35370651E-02 -1.17263430E-01 -7.01098061E-02  6.29052964E-02 -3.63394329E-02
 -1.66683180E-01 -1.56696714E-02  2.02591396E-02 -2.15105040E-02 -4.28989709E-02
  9.47145935E-03 -2.17344555E-04 -8.10577951E-03 -7.59511884E-02  4.87106747E-03
  1.15188117E-01 -2.10527222E-01  8.95778036E-02  6.93913374E-02  7.32594161E-04
 -3.08101104E-01  6.55084784E-03  8.79975151E-03 -3.93780122E-03 -4.19648869E-02
 -5.13420847E-03 -2.89998738E-03 -5.29913179E-04 -1.26839864E-01  2.46284487E-01
  8.94155710E-02  1.03539607E-01 -8.80168687E-03  3.27602910E-01 -1.23963976E-03
  1.85975791E-02  2.91671069E-03  4.16653055E-02 -2.39029899E-03 -2.28590451E-04
  1.36156216E-04 -1.00372437E-01 -2.71067501E-02 -1.10128428E-01 -2.80115862E-02
 -1.04596794E-01 -2.33127283E-02  1.20143710E-01  3.78610806E-02  1.32036035E-01
  4.16955379E-02  2.76748909E-02 -6.23190367E-02 -1.05739522E-01  1.75326620E-01
 -5.86771899E-02 -9.40936475E-02 -4.33134865E-02  8.23291456E-02 -2.92237171E-02
 -3.40220603E-02  7.10283011E-03 -5.79613375E-03 -4.20598300E-03 -1.19251525E-01
 -2.55018137E-02  1.37226751E-02 -2.15883324E-02  2.11182217E-02  8.07297042E-02
  1.21399368E-01 -6.90562155E-02 -1.01504078E-02  3.06414180E-02  4.41646178E-02
 -7.19387876E-02 -1.52883243E-02 -5.73494809E-03 -1.49394041E-03 -2.92651765E-02
  4.76050418E-02 -1.20787598E-01  1.12947828E-01  2.56534071E-01  1.18271941E-01
 -3.99750211E-02  1.91905164E-02  1.20309681E-01  7.76153834E-02 -1.77936329E-02
 -1.51221596E-02  1.07747924E-02  1.04045980E-02  6.47163189E-03  1.30017632E-02
  1.38283913E-02 -9.50129192E-02 -5.40172342E-02  1.81909413E-01  8.61056802E-02
 -4.03984812E-02 -2.11542072E-02  3.59176017E-02 -8.06057984E-02  1.26118903E-01
 -1.85287651E-01  2.92442771E-01 -1.50963144E-01  8.15658641E-02 -1.05820948E-01
  1.65712902E-01 -1.12744715E-03 -1.55534020E-02  6.48050145E-03  4.57328238E-03
  1.92711826E-01  8.11069493E-02 -2.83116082E-04 -2.25767071E-03 -1.17521994E-01
  1.70060749E-01 -1.57530159E-01  9.96038122E-03 -5.65205183E-02  8.19855288E-02
 -6.41403972E-02  7.51538769E-03 -2.65910663E-03  5.29725273E-03  7.08985098E-04
 -1.97102540E-04 -4.75240413E-03 -1.16365194E-01  2.39020058E-01 -1.91954613E-01
  4.24593935E-02 -2.26874257E-02  1.04853539E-01 -1.17206885E-01  3.89857499E-03
  3.08859373E-03  7.67720582E-03 -1.32603639E-02  1.17939069E-01  7.51937096E-02
 -1.40230749E-01 -1.00604263E-01  3.32200361E-02  2.13196058E-02 -2.86535543E-02
 -1.54022287E-02  1.80938773E-01  8.73476144E-02 -1.46262306E-02  4.21809745E-02
  2.54998681E-01 -1.31351182E-01 -3.27069122E-02  2.71562467E-02  1.71676577E-01
 -8.59521072E-02 -2.18948974E-02  1.90138373E-02  1.47475291E-03 -1.14164198E-02
  1.17633993E-02  8.88157618E-02  2.80672864E-02 -1.12139057E-02  1.55500333E-02
 -2.83920094E-01 -4.10300641E-02  1.24514268E-01  6.19879167E-02 -1.25674485E-01
  5.09437820E-03  6.71403919E-02  1.06671600E-02 -1.59028843E-02  6.24668183E-03
  6.32029182E-03  3.07178171E-02 -5.93014122E-02  2.04063181E-01  1.55723450E-01
  1.18056459E-01 -1.01756857E-01  9.29168895E-02  8.03821263E-02  4.30516268E-02
 -7.89890045E-03  1.40237062E-02  4.75134231E-03 -3.45986187E-03  1.46031702E-01
  9.02404711E-02  9.57484012E-02  6.63849366E-02 -3.77287701E-02 -1.46781993E-02
  8.63608558E-02  7.28766108E-02 -2.23095331E-02 -1.79850847E-02 -3.00259775E-02
  6.99113192E-02  1.63471275E-01  3.02715617E-01 -3.28581667E-02  1.20352961E-01
  1.07365973E-01  1.98218829E-01 -1.49029140E-02  2.80867791E-02  6.94946046E-03
  8.17255300E-04  3.46797505E-03 -1.00761595E-01 -6.21408449E-02 -5.66842865E-04
 -3.57449966E-04  7.39329362E-03  2.60905279E-01  2.79165917E-01  2.99316971E-04
  7.77929193E-03  1.33995846E-01  1.68942518E-01  6.76132481E-02  1.94111417E-02
  1.51761980E-02  1.97293191E-02  1.39057792E-03  4.10199471E-04 -1.40714299E-01
 -1.15056078E-01 -3.26815981E-02 -1.55904159E-02 -6.25083479E-02 -4.84407310E-02
 -4.36975156E-02 -8.78026555E-02  9.27331331E-03  1.87606133E-02 -1.44966057E-02
  1.17391564E-01  9.52927892E-02  2.91012432E-02  1.06633946E-02 -2.54838619E-01
 -1.78912074E-01 -6.45036090E-02 -3.86716702E-02 -3.92933482E-02 -4.01854685E-02
 -2.77217533E-02  6.61100992E-02 -4.39860108E-02 -9.54247326E-02 -2.58254302E-01
  1.11038748E-01 -3.31446829E-02 -6.59061581E-02 -1.74140125E-01  4.37681927E-02
 -7.60697965E-04 -1.31684898E-02 -1.06963218E-02 -6.68831573E-02 -4.86580183E-02
 -2.24225311E-03  8.36191382E-03 -1.21982705E-01  2.61805855E-01 -1.88712790E-01
 -5.86367843E-04 -7.57503301E-02  1.45741809E-01 -1.18411169E-01 -1.07536292E-02
 -1.25320567E-02  9.96341243E-03 -1.36235765E-02  3.58000292E-03  2.25683112E-03
  6.42314892E-02 -1.83414034E-01  1.01198644E-01 -7.24180597E-02 -5.70552177E-03
 -8.56623437E-02  8.86884134E-02 -2.70077560E-02 -4.10330120E-03 -7.02986736E-04
  1.68601194E-02  1.82573168E-01  1.46023639E-01 -2.22942237E-01 -1.74169513E-01
  2.49984344E-02  1.84525309E-02 -8.81836252E-03 -1.35227527E-02 -1.41544238E-01
 -8.80034359E-02  9.93999408E-03 -3.41069122E-02 -2.12618783E-01  1.11563150E-01
  1.53909059E-01 -4.97717661E-03 -1.64036717E-01  9.07960959E-02  1.13751101E-01
  3.60546701E-02 -2.06760705E-02  1.15490377E-02  4.49355375E-03 -2.02550645E-02
 -2.04091301E-02  1.18198827E-02 -2.03105872E-02 -1.48820324E-01 -3.13560394E-02
  1.53869119E-01 -5.72228487E-02 -8.30734297E-02 -2.24361425E-02  7.37287823E-02
 -6.02331120E-02 -2.21754313E-02 -9.89192236E-03  5.40685652E-03 -3.27504099E-03
  1.15374037E-02  1.56449053E-01  4.17887347E-02 -2.65197008E-01 -2.48073691E-02
  3.75194608E-02  2.71787095E-02 -1.11580105E-01  5.96748386E-02 -1.24834925E-02
 -1.04002127E-02 -5.70687739E-03  7.18923393E-02  7.01562573E-02  1.03773802E-01
  1.11282715E-01 -1.01021764E-01 -9.79607006E-02 -1.52480035E-01 -1.61581492E-01
  1.82520305E-01  1.78785220E-01  3.99064369E-02 -1.02314275E-01 -2.48531468E-01
 -3.53246411E-02  3.01178248E-01 -1.45641572E-01 -1.92502499E-01 -1.74298870E-02
  2.22592971E-01 -2.60654741E-02 -3.51118027E-02  6.40653300E-04  3.60061634E-02
  1.08991362E-01  7.63726357E-02 -2.56903815E-02  5.34745084E-02  2.18615130E-01
  9.92411080E-02  5.03565827E-02  1.04534523E-01  1.08253094E-01  8.67233281E-02
  2.72485584E-02 -1.23837691E-01 -3.03212737E-02  6.71983298E-04 -2.23034791E-03
 -5.62711657E-03  1.62508261E-02 -1.48498107E-01 -1.59428928E-01 -1.21338378E-01
  9.35296546E-03 -4.61465197E-02 -8.01662835E-02 -6.01662067E-02  1.09186774E-01
 -1.78335048E-02 -4.13118496E-02 -7.82768826E-03 -6.08557722E-02 -7.84269870E-02
  2.16783207E-03  1.58732977E-02 -5.71839615E-02 -5.23151423E-02 -1.59952035E-01
 -1.66288695E-01 -5.03588591E-03 -3.75418392E-03 -2.63162845E-04  2.13261149E-03
  3.01113382E-01  3.55231237E-01  2.48018348E-01 -6.07681235E-03  2.39267610E-01
  2.73559300E-01  1.93643327E-01 -9.65906479E-03  3.63992453E-02  4.54780004E-02
  4.04004078E-02  1.89813492E-03 -6.80894183E-03  3.77476008E-02 -7.91394651E-02
  4.93213062E-02  4.86009533E-02 -2.19577805E-02 -1.51656323E-01  1.11117997E-01
  6.15153599E-02 -5.46377151E-02 -2.89133563E+00 -1.42422414E+00 -6.41168498E-01
  2.84940649E-02  1.01749445E-02 -4.69667179E-02 -1.53077147E-02 -7.99053145E-02
 -3.89436373E-02  1.03726858E-01  1.88580262E-01 -1.11955677E-01 -4.25861964E-02
  5.54378189E+00 -2.76683766E-01 -1.13077832E+00  2.17384729E-01  1.11410959E-02
 -1.40276481E-01 -7.40726281E-03 -2.34390614E-01 -2.32261928E-03 -1.75350562E-01
  1.41943484E-03 -2.83787669E-01 -2.21938256E-03 -1.39504812E-01  1.82496949E-02
 -5.91102467E-02 -2.18138574E-03  5.07569260E-02 -3.62372401E-02 -3.64027825E-02
  3.87936909E-02  5.26221714E-02 -6.51911797E-02 -1.68401890E+00  2.81628702E-01
 -1.87541038E-01 -1.20924389E-01  6.25525853E-03  1.81627673E-01 -2.11969754E-02
  5.47605752E-02  1.92123048E-03 -1.39639301E-02 -7.42137378E-03  5.59639906E-02
 -6.10417002E-02 -4.83326124E-02 -2.72388835E-02  8.86341424E+00  2.81569119E+00
  1.94512654E+00  6.55146039E-02  2.84511085E-02 -9.26829209E-02  3.25435431E-02
 -4.22883134E-02 -2.87554849E-02  7.08767470E-03  7.50020226E-02 -1.36973558E-01
 -2.47427422E-02 -8.39897534E+00  2.93648008E+00  1.96785778E+00  4.62626325E-01
  1.84053307E-02 -1.66246110E-02  4.89601803E-03  1.41261557E-02  5.14234691E-03
  1.62096418E-02 -4.30916504E-03 -8.64236261E-02 -4.96356700E-03  1.85032139E-02
  8.81673812E-03 -2.48124856E-02 -3.67119281E-02 -2.70047306E-03 -1.55011594E-02
 -4.56127248E-02  7.02235413E-03  3.30768101E-02 -2.29032764E-02 -4.82312568E-01
 -4.71810220E-02 -2.79965849E-01 -1.18433193E-01  3.79757782E-03  9.97299126E-02
 -1.43356168E-02  1.79942448E-02 -7.32641902E-02  5.62556198E-02 -2.35363800E-02
  1.00069581E-01 -6.64260841E-02  3.96469736E-02 -6.51067619E-02 -1.42578257E+00
  2.39819657E-01 -1.72263772E-01  5.60017858E-02 -2.00954595E-02  2.08741652E-02
  4.11697646E-02  3.72194181E-02 -3.49927336E-02  2.43792775E-01  9.51334578E-02
  4.59417470E-03 -3.33662600E-02  1.62375944E+00  2.07337791E-01 -1.40704110E+00
  2.90176139E-01  1.98724017E-02  2.78655281E-01 -1.07108297E-02 -9.19846349E-02
 -5.94740680E-03 -2.08242088E-02  4.45390453E-03  2.54918243E-02 -3.75946589E-03
  1.74447468E-01  2.02391259E-02 -6.37774000E-02  2.92399624E-03  1.93326434E-02
 -5.41481579E-02 -4.52790670E-02 -1.35280039E-03  9.16799368E-03 -9.01607751E-02
 -1.43179861E+00  2.99242523E-01  1.31928892E-01 -1.48603652E-01  1.64928449E-02
  2.83255823E-01 -4.98918197E-04  1.00898341E-02  1.47199880E-02 -2.94154780E-02
 -8.36370174E-02 -3.50400820E-02 -1.04913523E-02 -2.65928291E-02 -1.44053764E-01
 -8.21364477E-01 -2.17958704E-01 -3.91697378E-02  5.46562209E-01  4.79825475E-03
  2.00514659E-02 -1.69808652E-02  3.05479103E-02 -9.40188155E-02 -1.78758593E-01
 -1.05429259E-01  7.82286490E-02 -9.22049986E-02 -1.14935221E-01 -8.25915611E-01
  1.26657267E-01  8.01307228E-01 -1.44853703E-02 -9.93531879E-02 -1.13669699E-04
 -7.20548860E-02  1.41530265E-02  2.47872643E-01  7.20649140E-03 -1.32734963E-01
 -1.05388906E-03  1.26128805E-01 -1.46017075E-02  5.11794174E-02  7.24904732E-03
 -2.26404427E-03 -4.63091955E-03  3.15714915E-03 -1.13709362E-02 -2.20957320E-03
  4.34962827E-02  1.00251587E+00 -2.04650355E-01  2.05283404E-01 -2.95061231E-01
 -5.73380859E-03  1.22576906E-02 -6.84942817E-04  4.34581472E-03  2.65715970E-02