untitled_15                                                             
Freq      RHF                                                         6-31+G              
Number of atoms                            I                3
Info1-9                                    I   N=           9
          13          10        1002           0           0         100
           6           1           2
Charge                                     I                0
Multiplicity                               I                1
Number of electrons                        I               10
Number of alpha electrons                  I                5
Number of beta electrons                   I                5
Number of basis functions                  I               17
Number of independent functions            I               17
Number of point charges in /Mol/           I                0
Number of translation vectors              I                0
Atomic numbers                             I   N=           3
           1           8           1
Nuclear charges                            R   N=           3
  1.00000000E+00  8.00000000E+00  1.00000000E+00
Current cartesian coordinates              R   N=           9
  8.06096999E-16  1.49367733E+00 -7.95287464E-01  1.21743281E-17 -6.50834866E-17
  1.98821866E-01 -1.08641434E-15 -1.49367733E+00 -7.95287464E-01
Force Field                                I                0
Int Atom Types                             I   N=           3
           0           0           0
MM charges                                 R   N=           3
  0.00000000E+00  0.00000000E+00  0.00000000E+00
Integer atomic weights                     I   N=           3
           1          16           1
Real atomic weights                        R   N=           3
  1.00782504E+00  1.59949146E+01  1.00782504E+00
Atom fragment info                         I   N=           3
           0           0           0
Atom residue num                           I   N=           3
           0           0           0
Nuclear spins                              I   N=           3
           1           0           1
Nuclear ZEff                               R   N=           3
 -1.00000000E+00 -5.60000000E+00 -1.00000000E+00
Nuclear ZNuc                               R   N=           3
  1.00000000E+00  8.00000000E+00  1.00000000E+00
Nuclear QMom                               R   N=           3
  0.00000000E+00  0.00000000E+00  0.00000000E+00
Nuclear GFac                               R   N=           3
  2.79284600E+00  0.00000000E+00  2.79284600E+00
MicOpt                                     I   N=           3
          -1          -1          -1
Number of contracted shells                I                8
Number of primitive shells                 I               19
Pure/Cartesian d shells                    I                1
Pure/Cartesian f shells                    I                0
Highest angular momentum                   I                1
Largest degree of contraction              I                6
Shell types                                I   N=           8
           0           0           0          -1          -1          -1
           0           0
Number of primitives per shell             I   N=           8
           3           1           6           3           1           1
           3           1
Shell to atom map                          I   N=           8
           1           1           2           2           2           2
           3           3
Primitive exponents                        R   N=          19
  1.87311370E+01  2.82539436E+00  6.40121692E-01  1.61277759E-01  5.48467166E+03
  8.25234946E+02  1.88046958E+02  5.29645000E+01  1.68975704E+01  5.79963534E+00
  1.55396162E+01  3.59993359E+00  1.01376175E+00  2.70005823E-01  8.45000000E-02
  1.87311370E+01  2.82539436E+00  6.40121692E-01  1.61277759E-01
Contraction coefficients                   R   N=          19
  3.34946043E-02  2.34726953E-01  8.13757326E-01  1.00000000E+00  1.83107443E-03
  1.39501722E-02  6.84450781E-02  2.32714336E-01  4.70192898E-01  3.58520853E-01
 -1.10777550E-01 -1.48026263E-01  1.13076702E+00  1.00000000E+00  1.00000000E+00
  3.34946043E-02  2.34726953E-01  8.13757326E-01  1.00000000E+00
P(S=P) Contraction coefficients            R   N=          19
  0.00000000E+00  0.00000000E+00  0.00000000E+00  0.00000000E+00  0.00000000E+00
  0.00000000E+00  0.00000000E+00  0.00000000E+00  0.00000000E+00  0.00000000E+00
  7.08742682E-02  3.39752839E-01  7.27158577E-01  1.00000000E+00  1.00000000E+00
  0.00000000E+00  0.00000000E+00  0.00000000E+00  0.00000000E+00
Coordinates of each shell                  R   N=          24
 -6.16297582E-33  1.49367733E+00 -7.95287464E-01 -6.16297582E-33  1.49367733E+00
 -7.95287464E-01  1.54074396E-33  2.46519033E-32  1.98821866E-01  1.54074396E-33
  2.46519033E-32  1.98821866E-01  1.54074396E-33  2.46519033E-32  1.98821866E-01
  1.54074396E-33  2.46519033E-32  1.98821866E-01 -1.82922716E-16 -1.49367733E+00
 -7.95287464E-01 -1.82922716E-16 -1.49367733E+00 -7.95287464E-01
Constraint Structure                       R   N=           9
 -6.16297582E-33  1.49367733E+00 -7.95287464E-01  1.54074396E-33  2.46519033E-32
  1.98821866E-01 -1.82922716E-16 -1.49367733E+00 -7.95287464E-01
Num ILSW                                   I              100
ILSW                                       I   N=         100
           0           1           0           0           2           0
           0           0           0           0           0          -1
           0           0           0           0           2           0
           0           0           0           0           1           0
           1           0           0           0           0           0
           0           0      100000           0          -1           0
           0           0           0           0           0           0
           0           0           0           1           0           0
           0           0           1           0           0           0
           0           0           4          41           0           0
           0           0           0           0           0           0
           0           0           0           3           0           0
           0           0           0           0           0           0
           0           0           0           0           0           0
           0           0           0           0           0           0
           0           0           0           0           0           0
           0           0           0           0
Num RLSW                                   I               41
RLSW                                       R   N=          41
  1.00000000E+00  1.00000000E+00  1.00000000E+00  1.00000000E+00  1.00000000E+00
  0.00000000E+00  0.00000000E+00  1.00000000E+00  0.00000000E+00  0.00000000E+00
  0.00000000E+00  0.00000000E+00  1.00000000E+00  0.00000000E+00  0.00000000E+00
  0.00000000E+00  0.00000000E+00  1.00000000E+00  0.00000000E+00  0.00000000E+00
  0.00000000E+00  0.00000000E+00  1.00000000E+00  0.00000000E+00  0.00000000E+00
  0.00000000E+00  0.00000000E+00  1.00000000E+00  0.00000000E+00  0.00000000E+00
  0.00000000E+00  0.00000000E+00  1.00000000E+00  0.00000000E+00  0.00000000E+00
  0.00000000E+00  0.00000000E+00  0.00000000E+00  1.00000000E+00  1.00000000E+00
  0.00000000E+00
MxBond                                     I                2
NBond                                      I   N=           3
           1           2           1
IBond                                      I   N=           6
           2           0           1           3           2           0
RBond                                      R   N=           6
  1.00000000E+00  0.00000000E+00  1.00000000E+00  1.00000000E+00  1.00000000E+00
  0.00000000E+00
Virial Ratio                               R      2.000360788856288E+00
SCF Energy                                 R     -7.599305873489831E+01
Total Energy                               R     -7.599305873489831E+01
RMS Force                                  R      4.229661398929639E-05
RMS Density                                R      9.164664229104761E-10
External E-field                           R   N=          35
  0.00000000E+00  0.00000000E+00  0.00000000E+00  0.00000000E+00  0.00000000E+00
  0.00000000E+00  0.00000000E+00  0.00000000E+00  0.00000000E+00  0.00000000E+00
  0.00000000E+00  0.00000000E+00  0.00000000E+00  0.00000000E+00  0.00000000E+00
  0.00000000E+00  0.00000000E+00  0.00000000E+00  0.00000000E+00  0.00000000E+00
  0.00000000E+00  0.00000000E+00  0.00000000E+00  0.00000000E+00  0.00000000E+00
  0.00000000E+00  0.00000000E+00  0.00000000E+00  0.00000000E+00  0.00000000E+00
  0.00000000E+00  0.00000000E+00  0.00000000E+00  0.00000000E+00  0.00000000E+00
IOpCl                                      I                0
IROHF                                      I                0
Alpha Orbital Energies                     R   N=          17
 -2.05741403E+01 -1.36841436E+00 -7.45440154E-01 -5.61374010E-01 -5.11002486E-01
  1.45142361E-01  2.17862502E-01  2.52014807E-01  2.59508952E-01  3.63751391E-01
  3.68071956E-01  1.33391684E+00  1.36471094E+00  1.40334903E+00  1.41480022E+00
  1.42827243E+00  1.73852346E+00
Alpha MO coefficients                      R   N=         289
  2.20996780E-05  2.00606387E-03  9.95768508E-01  2.21613344E-02  0.00000000E+00
  0.00000000E+00 -1.85512831E-03 -8.37261779E-03  0.00000000E+00  0.00000000E+00
  1.37465825E-03  3.10288435E-04  0.00000000E+00  0.00000000E+00  4.64978084E-04
  2.20996780E-05  2.00606387E-03  1.43339436E-01 -4.09295366E-02 -2.13524355E-01
  4.73395328E-01  0.00000000E+00  0.00000000E+00 -1.05282889E-01  4.82609668E-01
  0.00000000E+00  0.00000000E+00 -5.97955831E-02  4.73033052E-02  0.00000000E+00
  0.00000000E+00 -1.66326071E-02  1.43339436E-01 -4.09295366E-02  2.64967785E-01
  1.02402502E-01  0.00000000E+00  0.00000000E+00  0.00000000E+00  5.09745793E-01
  0.00000000E+00  0.00000000E+00  0.00000000E+00  2.63434721E-01  0.00000000E+00
  0.00000000E+00  0.00000000E+00  4.86161004E-03  0.00000000E+00 -2.64967785E-01
 -1.02402502E-01 -1.34029794E-01 -5.84931886E-02 -6.88530296E-02  1.72520991E-01
  0.00000000E+00  0.00000000E+00  5.65883257E-01  2.50556284E-01  0.00000000E+00
  0.00000000E+00  3.88643984E-01  1.79089993E-02  0.00000000E+00  0.00000000E+00
  6.52886236E-02 -1.34029794E-01 -5.84931886E-02  0.00000000E+00  0.00000000E+00
  0.00000000E+00  0.00000000E+00  6.39707685E-01  0.00000000E+00  0.00000000E+00
  0.00000000E+00  4.65829345E-01  0.00000000E+00  0.00000000E+00  0.00000000E+00
  8.13106164E-02  0.00000000E+00  0.00000000E+00  0.00000000E+00  0.00000000E+00
  5.41360755E-02 -3.46445336E-01  6.66981912E-02 -8.77140441E-02  0.00000000E+00
  0.00000000E+00  1.69927302E-01 -7.53365782E-01  0.00000000E+00  0.00000000E+00
  2.06734345E-01  1.76196856E+00  0.00000000E+00  0.00000000E+00 -7.28829447E-01
  5.41360755E-02 -3.46445336E-01  7.11319025E-03 -3.24184489E-01  0.00000000E+00
  0.00000000E+00  0.00000000E+00 -1.90223235E-01  0.00000000E+00  0.00000000E+00
  0.00000000E+00 -4.25518995E-01  0.00000000E+00  0.00000000E+00  0.00000000E+00
  1.44410282E+00  0.00000000E+00 -7.11319025E-03  3.24184489E-01  0.00000000E+00
  0.00000000E+00  0.00000000E+00  0.00000000E+00 -2.07797096E-01  0.00000000E+00
  0.00000000E+00  0.00000000E+00 -5.16037281E-01  0.00000000E+00  0.00000000E+00
  0.00000000E+00  1.23408694E+00  0.00000000E+00  0.00000000E+00  0.00000000E+00
  0.00000000E+00  3.69611641E-02  5.44204813E-01  5.42797596E-02 -6.81939950E-02
  0.00000000E+00  0.00000000E+00 -1.11185811E-01 -7.15600113E-01  0.00000000E+00
  0.00000000E+00 -3.19499550E-01  7.25540759E-02  0.00000000E+00  0.00000000E+00
  1.29965388E+00  3.69611641E-02  5.44204813E-01  1.02535230E-01  2.15877774E+00
  0.00000000E+00  0.00000000E+00  0.00000000E+00 -2.76367297E-01  0.00000000E+00
  0.00000000E+00  0.00000000E+00 -8.10557267E-01  0.00000000E+00  0.00000000E+00
  0.00000000E+00 -1.32994438E+00  0.00000000E+00 -1.02535230E-01 -2.15877774E+00
 -1.31326128E-01 -2.42374032E+00 -5.06831303E-02  5.87122241E-02  0.00000000E+00
  0.00000000E+00 -2.13969934E-01  9.35910706E-01  0.00000000E+00  0.00000000E+00
 -6.66786359E-01  3.10949743E+00  0.00000000E+00  0.00000000E+00 -8.17991967E-01
 -1.31326128E-01 -2.42374032E+00 -8.82704371E-01  1.65282803E+00  0.00000000E+00
  0.00000000E+00  0.00000000E+00  7.44579715E-01  0.00000000E+00  0.00000000E+00
  0.00000000E+00 -4.18043197E-01  0.00000000E+00  0.00000000E+00  0.00000000E+00
 -7.63007898E-01  0.00000000E+00  8.82704371E-01 -1.65282803E+00 -7.49643139E-01
  1.76601074E+00 -5.43196137E-02  5.40105088E-01  0.00000000E+00  0.00000000E+00
 -7.38167553E-01 -8.84827741E-01  0.00000000E+00  0.00000000E+00  7.82728102E-01
 -1.65657813E+00  0.00000000E+00  0.00000000E+00  3.68128744E-01 -7.49643139E-01
  1.76601074E+00  0.00000000E+00  0.00000000E+00  0.00000000E+00  0.00000000E+00
 -9.90978707E-01  0.00000000E+00  0.00000000E+00  0.00000000E+00  1.43116957E+00
  0.00000000E+00  0.00000000E+00  0.00000000E+00 -6.48294869E-01  0.00000000E+00
  0.00000000E+00  0.00000000E+00  0.00000000E+00 -6.85881887E-01  3.75107183E-01
  0.00000000E+00  0.00000000E+00  0.00000000E+00 -7.33864072E-01  0.00000000E+00
  0.00000000E+00  0.00000000E+00  1.75494192E+00  0.00000000E+00  0.00000000E+00
  0.00000000E+00 -8.37167823E-01  0.00000000E+00  6.85881887E-01 -3.75107183E-01
  7.67188266E-01 -7.40848981E-01  4.61198556E-02 -1.19627580E-01  0.00000000E+00
  0.00000000E+00 -6.85569987E-01 -1.25281312E-01  0.00000000E+00  0.00000000E+00
  1.44107008E+00  7.14312552E-01  0.00000000E+00  0.00000000E+00 -8.47332240E-01
  7.67188266E-01 -7.40848981E-01 -4.56107245E-01 -4.04030896E-02  5.65271376E-02
 -1.69057286E+00  0.00000000E+00  0.00000000E+00 -1.40472573E-01  2.66371840E+00
  0.00000000E+00  0.00000000E+00 -1.38600832E-01 -8.48857274E-01  0.00000000E+00
  0.00000000E+00 -6.68384286E-02 -4.56107245E-01 -4.04030896E-02
Total SCF Density                          R   N=         153
  2.17436215E-01  5.82128438E-02  3.11739537E-02 -4.27121945E-02  2.95289228E-02
  2.08377662E+00  8.94675129E-02 -5.88453944E-02 -1.81784933E-01  5.08715508E-01
 -3.08148791E-33 -1.15555797E-33  0.00000000E+00  0.00000000E+00  8.18451845E-01
  2.70132428E-01  1.04398489E-01  0.00000000E+00  0.00000000E+00 -2.46519033E-32
  5.19681546E-01 -1.81872894E-01 -5.75897155E-02 -3.66591880E-02  9.54904011E-02
  0.00000000E+00  2.45023985E-32  6.62623578E-01  7.11896115E-02 -6.88512441E-02
 -2.57275333E-01  5.43011665E-01  0.00000000E+00  6.72927429E-33  1.81981197E-01
  5.91521288E-01 -1.54074396E-33 -5.77778983E-34  0.00000000E+00  0.00000000E+00
  5.95989224E-01 -1.54074396E-32 -1.83653359E-33  0.00000000E+00  4.33993958E-01
  1.39603429E-01  5.39527492E-02  0.00000000E+00  0.00000000E+00 -1.23259516E-32
  2.68569481E-01  9.93112331E-33  0.00000000E+00 -6.16297582E-33  1.38795704E-01
 -1.21321816E-01 -4.05657255E-02 -2.52453220E-02  7.75455199E-02  0.00000000E+00
  1.67302626E-32  4.52440051E-01  1.37015513E-01  0.00000000E+00  1.14351463E-32
  3.09243096E-01  8.76019296E-03 -5.96606874E-03 -2.20490423E-02  5.09794368E-02
  0.00000000E+00  3.81138043E-34  1.03071972E-02  5.46272936E-02  0.00000000E+00
  3.05594065E-34  8.26424533E-03  5.11686243E-03 -3.61111865E-35 -1.20370622E-35
  0.00000000E+00  0.00000000E+00  1.04030052E-01 -1.92592994E-33 -3.20567349E-34
  0.00000000E+00  7.57537425E-02 -1.92592994E-33 -2.33434242E-34  0.00000000E+00
  1.32228327E-02  2.57634009E-03  9.95682068E-04  0.00000000E+00  0.00000000E+00
 -1.15555797E-33  4.95637053E-03  1.83275951E-34  0.00000000E+00 -1.15555797E-33
  2.56143377E-03  9.47163263E-35  0.00000000E+00 -1.44444746E-34  4.72705045E-05
 -2.22694380E-02 -6.27448421E-03 -9.61684599E-04  6.80032823E-03  0.00000000E+00
  2.86179054E-33  7.73920106E-02  1.66550497E-02  0.00000000E+00  1.95015486E-33
  5.27384529E-02  7.65241807E-04  0.00000000E+00  3.35719297E-34  9.07892839E-03
 -6.33954944E-02 -5.03206132E-02 -4.27121945E-02  8.94675129E-02  3.08148791E-33
 -2.70132428E-01 -1.81872894E-01  7.11896115E-02  1.54074396E-33 -1.39603429E-01
 -1.21321816E-01  8.76019296E-03  3.61111865E-35 -2.57634009E-03 -2.22694380E-02
  2.17436215E-01 -5.03206132E-02 -1.07711362E-02  2.95289228E-02 -5.88453944E-02
  1.15555797E-33 -1.04398489E-01 -5.75897155E-02 -6.88512441E-02  5.77778983E-34
 -5.39527492E-02 -4.05657255E-02 -5.96606874E-03  1.20370622E-35 -9.95682068E-04
 -6.27448421E-03  5.82128438E-02  3.11739537E-02
Mulliken Charges                           R   N=           3
  4.60655248E-01 -9.21310496E-01  4.60655248E-01
Optimization MaxStp                        I                2
Optimization Job offset                    I                0
Optimization Num results per geometry      I                2
Optimization Num geometry variables        I                9
Opt point       1 Results for each geome   R   N=           2
 -7.59930587E+01  0.00000000E+00
Opt point       1 Geometries               R   N=           9
 -6.16297582E-33  1.49367733E+00 -7.95287464E-01  1.54074396E-33  2.46519033E-32
  1.98821866E-01 -1.82922716E-16 -1.49367733E+00 -7.95287464E-01
Opt point       1 Gradient at each geome   R   N=           9
  2.50413610E-17  8.27666075E-05  2.00017057E-05  8.06922790E-16 -1.86943560E-16
 -4.00034113E-05 -8.31964151E-16 -8.27666075E-05  2.00017057E-05
Optimization Number of geometries          I   N=           1
           1
ONIOM Charges                              I   N=          16
           0           0           0           0           0           0
           0           0           0           0           0           0
           0           0           0           0
ONIOM Multiplicities                       I   N=          16
           1           0           0           0           0           0
           0           0           0           0           0           0
           0           0           0           0
Atom Layers                                I   N=           3
           1           1           1
Atom Modifiers                             I   N=           3
           0           0           0
Force Field                                I                0
Int Atom Modified Types                    I   N=           3
           0           0           0
Link Atoms                                 I   N=           3
           0           0           0
Atom Modified MM Charges                   R   N=           3
  0.00000000E+00  0.00000000E+00  0.00000000E+00
Link Distances                             R   N=          12
  0.00000000E+00  0.00000000E+00  0.00000000E+00  0.00000000E+00  0.00000000E+00
  0.00000000E+00  0.00000000E+00  0.00000000E+00  0.00000000E+00  0.00000000E+00
  0.00000000E+00  0.00000000E+00
Cartesian Gradient                         R   N=           9
  2.50413610E-17  8.27666075E-05  2.00017057E-05  8.06922790E-16 -1.86943560E-16
 -4.00034113E-05 -8.31964151E-16 -8.27666075E-05  2.00017057E-05
Cartesian Force Constants                  R   N=          45
  1.76455490E-05 -1.49176874E-17  4.45529666E-01  9.45519245E-18 -2.42324491E-01
  2.00667132E-01  2.01201815E-05 -7.78693971E-17  8.39912326E-17 -4.02403657E-05
  2.44669753E-17 -4.17534246E-01  2.77901180E-01 -6.71437225E-16  8.35068493E-01
 -1.02085538E-17  2.06747802E-01 -2.16323141E-01 -6.07393677E-16 -5.46981051E-10
  4.32646281E-01 -3.77657305E-05  3.45601056E-17 -3.95059733E-17  2.01201815E-05
  6.76137312E-16  5.04693699E-16  1.76455490E-05  4.06476162E-17 -2.79954193E-02
 -3.55766887E-02  6.70049749E-16 -4.17534246E-01 -2.06747802E-01 -6.81637448E-16
  4.45529666E-01  4.40633718E-17  3.55766887E-02  1.56560086E-02  4.21124115E-16
 -2.77901179E-01 -2.16323141E-01 -4.06219407E-16  2.42324491E-01  2.00667132E-01
Dipole Moment                              R   N=           3
 -7.43560743E-17  1.11022302E-16 -1.01569881E+00
Dipole Derivatives                         R   N=          27
  5.10858716E-01  1.44069538E-16  2.17536055E-16  2.02659690E-17  3.14277223E-01
  1.01495848E-01 -1.10853732E-17  1.30833816E-01  2.47519870E-01 -1.02171743E+00
  2.20865746E-15  2.82324339E-16 -4.15865729E-16 -6.28554447E-01  4.52634964E-09
 -2.30026094E-16 -5.43994701E-10 -4.95039736E-01  5.10858716E-01 -1.03261365E-15
 -3.24614245E-16  2.51150299E-16  3.14277223E-01 -1.01495848E-01  1.53420197E-16
 -1.30833816E-01  2.47519870E-01
Polarizability                             R   N=           6
  3.85342646E+00  2.31410716E-16  7.04792242E+00  1.96549217E-16 -2.69071874E-16
  4.75520093E+00
Polarizability Derivatives                 R   N=          54
 -1.15413226E-15  1.06933913E+00  2.46089918E-15 -4.53558964E-01  7.40510135E-16
  1.29635157E-15  5.61031399E-02  9.89609566E-18  5.23171770E+00  1.87493627E-17
 -2.42513577E+00  1.59564319E+00 -1.97991309E-01 -1.75846040E-18 -2.58194118E+00
  2.24767144E-17  2.38151223E+00 -2.63183324E+00  1.28727977E-14 -3.69037630E-16
  2.40295141E-14  9.07117929E-01  1.17779724E-14  2.48250247E-15  4.31272562E-08
  3.76153725E-16  3.72179062E-08 -2.42105493E-16  4.85027156E+00  3.95528138E-08
  3.95982659E-01 -6.95463310E-17  5.16388239E+00  1.98654354E-16  2.75378386E-08
  5.26366651E+00 -1.24792926E-14 -1.06933913E+00 -1.78400108E-14 -4.53558964E-01
 -7.33984712E-15 -3.47611380E-15 -5.61031399E-02 -2.43600712E-17 -5.23171770E+00
  9.47780805E-17 -2.42513577E+00 -1.59564319E+00 -1.97991309E-01  2.18659228E-16
 -2.58194118E+00  1.63111354E-18 -2.38151223E+00 -2.63183324E+00
HyperPolarizability                        R   N=          10
  7.08468126E-15  7.07194147E-16 -1.10807346E-15 -2.24399265E-15 -1.94486892E+00
 -1.45244723E-15 -1.50875253E+01 -2.27529785E-16  2.75787749E-16 -8.22732145E+00
QEq coupling tensors                       R   N=          18
  3.10826747E-01 -1.77927879E-18 -3.38187664E-01  2.38889711E-19  3.65143721E-01
  2.73609168E-02  1.78339665E+00  6.41988943E-17 -1.77600014E+00  4.25008564E-17
  0.00000000E+00 -7.39651235E-03  3.10826747E-01 -1.19750344E-16 -3.38187664E-01
 -7.82019108E-17 -3.65143721E-01  2.73609168E-02
