water_new_2                                                             
Freq      RHF                                                         6-31+G              
Number of atoms                            I                3
Info1-9                                    I   N=           9
          13          10           0           0           0         100
           6           1           2
Charge                                     I                0
Multiplicity                               I                1
Number of electrons                        I               10
Number of alpha electrons                  I                5
Number of beta electrons                   I                5
Number of basis functions                  I               17
Number of independent functions            I               17
Number of point charges in /Mol/           I                0
Number of translation vectors              I                0
Atomic numbers                             I   N=           3
           1           8           1
Nuclear charges                            R   N=           3
  1.00000000E+00  8.00000000E+00  1.00000000E+00
Current cartesian coordinates              R   N=           9
  1.48182875E+00 -9.30387764E-01  0.00000000E+00 -3.59047965E-04  1.17389787E-01
  0.00000000E+00 -1.48146970E+00 -9.30179894E-01  0.00000000E+00
Force Field                                I                0
Int Atom Types                             I   N=           3
           0           0           0
MM charges                                 R   N=           3
  0.00000000E+00  0.00000000E+00  0.00000000E+00
Integer atomic weights                     I   N=           3
           1          16           1
Real atomic weights                        R   N=           3
  1.00782504E+00  1.59949146E+01  1.00782504E+00
Atom fragment info                         I   N=           3
           0           0           0
Atom residue num                           I   N=           3
           0           0           0
Nuclear spins                              I   N=           3
           1           0           1
Nuclear ZEff                               R   N=           3
 -1.00000000E+00 -5.60000000E+00 -1.00000000E+00
Nuclear ZNuc                               R   N=           3
  1.00000000E+00  8.00000000E+00  1.00000000E+00
Nuclear QMom                               R   N=           3
  0.00000000E+00  0.00000000E+00  0.00000000E+00
Nuclear GFac                               R   N=           3
  2.79284600E+00  0.00000000E+00  2.79284600E+00
MicOpt                                     I   N=           3
          -1          -1          -1
Number of contracted shells                I                8
Number of primitive shells                 I               19
Pure/Cartesian d shells                    I                1
Pure/Cartesian f shells                    I                0
Highest angular momentum                   I                1
Largest degree of contraction              I                6
Shell types                                I   N=           8
           0           0           0          -1          -1          -1
           0           0
Number of primitives per shell             I   N=           8
           3           1           6           3           1           1
           3           1
Shell to atom map                          I   N=           8
           1           1           2           2           2           2
           3           3
Primitive exponents                        R   N=          19
  1.87311370E+01  2.82539436E+00  6.40121692E-01  1.61277759E-01  5.48467166E+03
  8.25234946E+02  1.88046958E+02  5.29645000E+01  1.68975704E+01  5.79963534E+00
  1.55396162E+01  3.59993359E+00  1.01376175E+00  2.70005823E-01  8.45000000E-02
  1.87311370E+01  2.82539436E+00  6.40121692E-01  1.61277759E-01
Contraction coefficients                   R   N=          19
  3.34946043E-02  2.34726953E-01  8.13757326E-01  1.00000000E+00  1.83107443E-03
  1.39501722E-02  6.84450781E-02  2.32714336E-01  4.70192898E-01  3.58520853E-01
 -1.10777550E-01 -1.48026263E-01  1.13076702E+00  1.00000000E+00  1.00000000E+00
  3.34946043E-02  2.34726953E-01  8.13757326E-01  1.00000000E+00
P(S=P) Contraction coefficients            R   N=          19
  0.00000000E+00  0.00000000E+00  0.00000000E+00  0.00000000E+00  0.00000000E+00
  0.00000000E+00  0.00000000E+00  0.00000000E+00  0.00000000E+00  0.00000000E+00
  7.08742682E-02  3.39752839E-01  7.27158577E-01  1.00000000E+00  1.00000000E+00
  0.00000000E+00  0.00000000E+00  0.00000000E+00  0.00000000E+00
Coordinates of each shell                  R   N=          24
  1.48182875E+00 -9.30387764E-01  0.00000000E+00  1.48182875E+00 -9.30387764E-01
  0.00000000E+00 -3.59047965E-04  1.17389787E-01  0.00000000E+00 -3.59047965E-04
  1.17389787E-01  0.00000000E+00 -3.59047965E-04  1.17389787E-01  0.00000000E+00
 -3.59047965E-04  1.17389787E-01  0.00000000E+00 -1.48146970E+00 -9.30179894E-01
  0.00000000E+00 -1.48146970E+00 -9.30179894E-01  0.00000000E+00
Constraint Structure                       R   N=           9
  1.48182875E+00 -9.30387764E-01  0.00000000E+00 -3.59047965E-04  1.17389787E-01
  0.00000000E+00 -1.48146970E+00 -9.30179894E-01  0.00000000E+00
Num ILSW                                   I              100
ILSW                                       I   N=         100
           0           1           0           0           2           0
           0           0           0           0           0          -1
           0           0           0           0           2           0
           0           0           0           0           1           0
           1           1           0           0           0           0
           0           0      100000           0          -1           0
           0           0           0           0           0           0
           0           0           0           1           0           0
           0           0           1           0           0           0
           0           0           4          41           0           0
           0           0           0           0           0           0
           0           0           0           3           0           0
           0           0           0           0           0           0
           0           0           0           0           0           0
           0           0           0           0           0           0
           0           0           0           0           0           0
           0           0           0           0
Num RLSW                                   I               41
RLSW                                       R   N=          41
  1.00000000E+00  1.00000000E+00  1.00000000E+00  1.00000000E+00  1.00000000E+00
  0.00000000E+00  0.00000000E+00  1.00000000E+00  0.00000000E+00  0.00000000E+00
  0.00000000E+00  0.00000000E+00  1.00000000E+00  0.00000000E+00  0.00000000E+00
  0.00000000E+00  0.00000000E+00  1.00000000E+00  0.00000000E+00  0.00000000E+00
  0.00000000E+00  0.00000000E+00  1.00000000E+00  0.00000000E+00  0.00000000E+00
  0.00000000E+00  0.00000000E+00  1.00000000E+00  0.00000000E+00  0.00000000E+00
  0.00000000E+00  0.00000000E+00  1.00000000E+00  0.00000000E+00  0.00000000E+00
  0.00000000E+00  0.00000000E+00  0.00000000E+00  1.00000000E+00  1.00000000E+00
  0.00000000E+00
MxBond                                     I                2
NBond                                      I   N=           3
           1           2           1
IBond                                      I   N=           6
           2           0           1           3           2           0
RBond                                      R   N=           6
  1.00000000E+00  0.00000000E+00  1.00000000E+00  1.00000000E+00  1.00000000E+00
  0.00000000E+00
Virial Ratio                               R      2.000847645175973E+00
SCF Energy                                 R     -7.599263194506018E+01
Total Energy                               R     -7.599263194506018E+01
RMS Force                                  R      7.929502051867397E-03
RMS Density                                R      6.767540662582643E-09
Job Status                                 I                1
Nuclear derivative order                   I                2
External E-field                           R   N=          35
  0.00000000E+00  0.00000000E+00  0.00000000E+00  0.00000000E+00  0.00000000E+00
  0.00000000E+00  0.00000000E+00  0.00000000E+00  0.00000000E+00  0.00000000E+00
  0.00000000E+00  0.00000000E+00  0.00000000E+00  0.00000000E+00  0.00000000E+00
  0.00000000E+00  0.00000000E+00  0.00000000E+00  0.00000000E+00  0.00000000E+00
  0.00000000E+00  0.00000000E+00  0.00000000E+00  0.00000000E+00  0.00000000E+00
  0.00000000E+00  0.00000000E+00  0.00000000E+00  0.00000000E+00  0.00000000E+00
  0.00000000E+00  0.00000000E+00  0.00000000E+00  0.00000000E+00  0.00000000E+00
IOpCl                                      I                0
IROHF                                      I                0
Alpha Orbital Energies                     R   N=          17
 -2.05781869E+01 -1.36586780E+00 -7.33519020E-01 -5.65574363E-01 -5.11521769E-01
  1.43253356E-01  2.20018052E-01  2.51978986E-01  2.59707796E-01  3.54214933E-01
  3.70050559E-01  1.30486160E+00  1.35921368E+00  1.40263782E+00  1.41607527E+00
  1.44289275E+00  1.74823939E+00
Alpha MO coefficients                      R   N=         289
  6.43331182E-05  1.98403874E-03  9.95781197E-01  2.21111945E-02 -5.11191487E-07
 -1.88074737E-03  6.64153693E-16 -8.35828839E-03  3.56476531E-07  1.42941107E-03
 -8.76580681E-16  3.16953440E-04  1.26377617E-06  4.92266601E-04  2.84159111E-16
  6.27063586E-05  1.98942056E-03  1.40902028E-01 -3.99307606E-02 -2.13365952E-01
  4.73116218E-01 -1.20581298E-04 -1.06361764E-01  4.54810475E-16  4.85155429E-01
 -1.11288699E-06 -6.24016248E-02 -3.86173413E-16  4.64813269E-02 -3.51920936E-05
 -1.70230918E-02  1.13291327E-16  1.41130036E-01 -4.00427815E-02  2.62567256E-01
  1.09111271E-01 -6.78042543E-05  1.29274018E-04  5.09010582E-01  2.74692998E-04
 -3.50462809E-16  3.55220901E-04  2.68639297E-01  7.24414277E-05  5.59569398E-18
  2.08545102E-05  3.49320102E-03  2.82221161E-05 -7.57964219E-16 -2.62712378E-01
 -1.09076132E-01 -1.38659064E-01 -6.56784889E-02 -7.06986247E-02  1.77246877E-01
 -2.07217041E-04  5.60710422E-01 -5.32028459E-17  2.56909197E-01 -1.71301117E-04
  3.82383456E-01 -2.14851753E-16  2.29736853E-02 -3.74215758E-07  6.19642993E-02
  8.83297551E-17 -1.38506408E-01 -6.54966643E-02  9.42128862E-17 -1.54908826E-16
 -2.29922285E-17  7.26235619E-17 -5.52779487E-17  1.14132209E-16  6.40472498E-01
  1.42610389E-16  4.13931507E-17  3.16017077E-16  4.65064251E-01  2.46624426E-16
  7.41382521E-16 -6.14638425E-16  8.12404925E-02 -1.23081213E-16 -4.59950085E-16
  5.56238584E-02 -3.40712108E-01  6.66122175E-02 -8.70421743E-02 -1.55263101E-04
  1.76463571E-01 -2.08216022E-16 -7.55479600E-01 -3.57548930E-04  2.12959822E-01
 -2.44621345E-17  1.74948444E+00 -3.57125824E-04 -7.42590976E-01  1.61894416E-16
  5.55296446E-02 -3.42071976E-01  7.74784026E-03 -2.81575785E-01  3.73699520E-05
 -1.70107039E-05 -1.95511435E-01  5.47719448E-05 -5.69839395E-17 -6.03779387E-04
 -4.45265072E-01  1.48756345E-04  2.07998279E-16 -6.60607507E-04  1.41663192E+00
  6.21648649E-04 -7.77637301E-16 -7.59712074E-03  2.83047223E-01  4.35377346E-16
  6.84293905E-15  5.43260697E-16 -6.50200544E-16  2.94446065E-16 -7.01340713E-16
 -2.07834065E-01 -7.61554782E-15  5.05626008E-16 -1.89266968E-15 -5.15404729E-01
 -4.25309577E-15  2.03264671E-15  1.32119900E-14  1.23392208E+00  2.92455728E-16
  1.05025124E-14  3.53148039E-02  5.47724007E-01  5.43317560E-02 -6.90412950E-02
 -4.42733986E-05 -1.08112142E-01  1.85305054E-15 -7.11713863E-01 -2.18236842E-05
 -3.14750288E-01  5.22452842E-15  7.53091574E-02 -9.03435091E-04  1.31118038E+00
 -1.15038965E-14  3.52447314E-02  5.46587351E-01  1.07944247E-01  2.09858638E+00
  2.98033072E-04 -4.08240470E-04 -2.77369760E-01  1.57959157E-03 -6.38657237E-16
 -4.94926063E-03 -7.69633897E-01  4.68605293E-03 -2.06407880E-16 -2.26161432E-02
 -1.28892500E+00  5.97984543E-03  1.14276488E-15 -1.06062442E-01 -2.06514157E+00
 -1.27268742E-01 -2.43163200E+00 -4.92128531E-02  5.89526502E-02 -1.96658669E-03
 -2.21664917E-01 -4.42147803E-16  8.97175945E-01 -5.98004018E-03 -6.83574410E-01
 -1.05198787E-15  3.16130608E+00 -9.02331504E-03 -8.95870722E-01  2.66203997E-15
 -1.28731962E-01 -2.46364632E+00 -9.27247889E-01  1.67811587E+00 -3.71507406E-04
  3.81203525E-03  6.73226840E-01 -4.25678121E-03 -3.98401026E-16 -6.42579036E-03
 -2.93970683E-01  4.61803297E-03  4.96885860E-16 -1.11305724E-02 -8.01014070E-01
  3.13558320E-03 -1.27293544E-16  9.17184014E-01 -1.65376182E+00 -7.06399463E-01
  1.75242626E+00 -5.25071290E-02  5.51574093E-01 -4.25568255E-03 -7.61038345E-01
  4.68318502E-15 -9.26424257E-01  1.35952508E-03  8.41639438E-01 -6.28528210E-15
 -1.64692515E+00  5.52781648E-03  3.85680193E-01  2.35178079E-15 -7.19036795E-01
  1.77523956E+00  6.44780072E-14 -3.29421271E-14  6.89178041E-16 -7.00743500E-16
  6.84256806E-14 -1.67437667E-14 -9.90476822E-01 -5.04407600E-15 -1.49039466E-13
  3.26515208E-14  1.43164626E+00  3.54865369E-15  6.96060842E-14 -1.50752922E-14
 -6.48617393E-01 -4.01025916E-14  2.15491313E-14 -6.02862727E-01  2.86825265E-01
  2.77894531E-04 -2.91044738E-04 -7.96286091E-01 -4.10892765E-03 -8.55390536E-14
 -1.99709832E-03  1.74600842E+00  9.26561978E-03  1.23862587E-13  3.64522804E-03
 -7.94701928E-01 -4.95092723E-03 -5.63603205E-14  6.12252152E-01 -2.93990683E-01
  7.84511326E-01 -7.82844980E-01  5.03147173E-02 -2.01823430E-01  5.50310133E-03
 -6.65720750E-01  2.05185394E-14  6.98217777E-03 -1.05533318E-02  1.42581807E+00
 -2.99458405E-14  7.03063474E-01  4.37022030E-03 -8.67789083E-01  1.39336631E-14
  7.78674979E-01 -7.81293224E-01 -5.05809275E-01  2.16149838E-02  5.38401505E-02
 -1.68027674E+00 -3.98426821E-04 -1.20069221E-01 -4.31525402E-16  2.64823881E+00
  5.34240611E-04 -2.02264252E-01  7.54672063E-16 -9.00577798E-01 -7.76575806E-04
 -2.50223961E-02 -4.92914116E-16 -5.04930904E-01  1.96136913E-02
Total SCF Density                          R   N=         153
  2.16042571E-01  6.42595345E-02  3.56346707E-02 -4.04288633E-02  3.02630277E-02
  2.08420705E+00  8.42430283E-02 -6.09504455E-02 -1.82920200E-01  5.11488666E-01
  2.67322508E-01  1.11114430E-01  1.07115709E-05 -5.59740022E-05  5.18183660E-01
 -1.85324332E-01 -6.51065330E-02 -3.76406163E-02  9.80422908E-02  7.29181786E-05
  6.51425230E-01  7.96484135E-17 -3.01606448E-16  1.10673986E-15  5.33802988E-16
 -4.27674881E-16 -1.29053371E-17  8.20410042E-01  6.56586531E-02 -7.24477154E-02
 -2.60003655E-01  5.49772977E-01  1.38157671E-04  1.84930989E-01  5.85295646E-16
  6.02896225E-01  1.41118958E-01  5.86457421E-02 -1.10234181E-05  7.69370119E-06
  2.73480561E-01 -4.42785786E-05 -1.35256128E-16  1.01749117E-04  1.44334203E-01
 -1.23588670E-01 -4.52237661E-02 -2.45924532E-02  7.65693357E-02 -6.96783537E-05
  4.42081735E-01  3.09198814E-16  1.35902836E-01 -9.19442867E-05  3.00226238E-01
  4.12128486E-17 -8.72796742E-17 -1.57197964E-15 -4.12787215E-16 -4.55359921E-17
 -4.93331153E-17  5.95721726E-01 -3.37799647E-16  4.15812392E-17  1.75315498E-16
  4.32569516E-01  6.73859923E-03 -6.72401472E-03 -2.24522513E-02  5.21401889E-02
  4.99373052E-07  1.58743169E-02  3.56154576E-16  5.69003546E-02  3.23061508E-06
  1.17694028E-02  1.83065392E-16  5.37680971E-03  1.82458707E-03  7.65159869E-04
  1.71136835E-05 -3.24735102E-05  3.55616120E-03  8.98089500E-06  9.47191464E-16
 -3.18789595E-05  1.87682234E-03  4.61561766E-06  6.89645234E-16 -3.14224554E-06
  2.44073871E-05 -2.19661161E-02 -6.77184103E-03 -5.16909265E-04  5.87993185E-03
  7.15542369E-06  7.31074329E-02 -8.08761831E-16  1.53124969E-02 -6.02772796E-06
  4.95141944E-02 -5.86033971E-16  1.26489806E-03  1.35019573E-06  8.25920634E-03
 -3.75258293E-16 -2.10097399E-16  5.01452978E-16  1.62682447E-16 -7.80669450E-16
  9.20141336E-17  1.04064602E-01  1.73196077E-16 -4.00542662E-16  1.05461859E-16
  7.55640976E-02  5.48106784E-17  1.15157798E-16 -9.25406299E-17  1.32000352E-02
 -5.97779742E-02 -5.04065903E-02 -4.04797542E-02  8.43770106E-02 -2.67423395E-01
 -1.85490218E-01  1.69677573E-16  6.55851760E-02 -1.41102599E-01 -1.23576488E-01
 -1.67016041E-16  6.74489969E-03 -1.84524380E-03 -2.19846110E-02  3.85799589E-16
  2.16239019E-01 -5.04001910E-02 -1.19936552E-02  3.03254274E-02 -6.10481616E-02
 -1.11005012E-01 -6.49986909E-02 -5.39528478E-16 -7.26180850E-02 -5.85817409E-02
 -4.51023283E-02 -3.73450111E-16 -6.73517109E-03 -7.59177281E-04 -6.75780399E-03
  7.11054825E-17  6.41524864E-02  3.55895953E-02
Mulliken Charges                           R   N=           3
  4.55282127E-01 -9.10613980E-01  4.55331853E-01
ONIOM Charges                              I   N=          16
           0           0           0           0           0           0
           0           0           0           0           0           0
           0           0           0           0
ONIOM Multiplicities                       I   N=          16
           1           0           0           0           0           0
           0           0           0           0           0           0
           0           0           0           0
Atom Layers                                I   N=           3
           1           1           1
Atom Modifiers                             I   N=           3
           0           0           0
Force Field                                I                0
Int Atom Modified Types                    I   N=           3
           0           0           0
Link Atoms                                 I   N=           3
           0           0           0
Atom Modified MM Charges                   R   N=           3
  0.00000000E+00  0.00000000E+00  0.00000000E+00
Link Distances                             R   N=          12
  0.00000000E+00  0.00000000E+00  0.00000000E+00  0.00000000E+00  0.00000000E+00
  0.00000000E+00  0.00000000E+00  0.00000000E+00  0.00000000E+00  0.00000000E+00
  0.00000000E+00  0.00000000E+00
Cartesian Gradient                         R   N=           9
  5.41423649E-03 -9.39439288E-03 -6.24157450E-17 -4.58163977E-04  1.84708048E-02
  6.07045168E-17 -4.95607251E-03 -9.07641189E-03  1.71122822E-18
Cartesian Force Constants                  R   N=          45
  4.07250106E-01 -2.23411343E-01  2.01799558E-01  3.95091990E-17 -2.25004730E-17
  6.30874167E-03 -3.74751829E-01  2.58587814E-01 -1.22792970E-17  7.50672711E-01
  1.88213872E-01 -2.17163306E-01  1.31740167E-17  1.15872580E-03  4.34968344E-01
 -3.97794878E-17  4.80908062E-17 -8.96654709E-03 -1.14373543E-16 -1.73891939E-16
  1.76302747E-02 -3.24982775E-02 -3.51764703E-02 -2.72299019E-17 -3.75920882E-01
 -1.89372598E-01  1.54153031E-16  4.08419159E-01  3.51974714E-02  1.53637479E-02
  9.32645627E-18 -2.59746539E-01 -2.17805038E-01  1.25801132E-16  2.24549068E-01
  2.02441290E-01  2.70288805E-19 -2.55903332E-17  2.65780542E-03  1.26652840E-16
  1.60717922E-16 -8.66372761E-03 -1.26923129E-16 -1.35127589E-16  6.00592218E-03
Dipole Moment                              R   N=           3
  2.91987229E-04 -1.04365209E+00  5.24856446E-17
Dipole Derivatives                         R   N=          27
  2.98321563E-01  1.01173575E-01  7.44248072E-17  1.41423135E-01  2.28987492E-01
 -1.60018480E-16 -4.69407229E-16  3.75009189E-16  4.97998236E-01 -5.96665190E-01
 -1.88053319E-05  2.31458966E-16 -3.62704204E-04 -4.57971875E-01 -3.53800397E-16
  1.20418001E-15  1.68771173E-16 -9.96161484E-01  2.98343627E-01 -1.01154769E-01
 -3.05883773E-16 -1.41060430E-01  2.28984383E-01  5.13818877E-16 -7.34772783E-16
 -5.43780362E-16  4.98163249E-01
Polarizability                             R   N=           6
  7.20084354E+00 -3.31766617E-03  5.01617501E+00  4.36511443E-15 -3.47540708E-15
  3.87268549E+00
Polarizability Derivatives                 R   N=          54
  5.31885897E+00 -2.58599970E+00  1.58783053E+00 -3.03164368E-15  2.39529640E-15
  4.59858132E-02 -2.64265730E+00  2.56729355E+00 -2.95766428E+00  2.19479709E-15
 -1.55916533E-15 -1.82733663E-01  1.34050853E-15 -2.59702926E-15 -6.97113754E-16
  1.12459730E+00 -5.46648698E-01  3.67615023E-15 -7.46253686E-03  5.17006819E+00
 -1.18712285E-04  1.86469294E-15 -3.71679545E-15  1.23765586E-04  5.28569185E+00
 -4.35113018E-03  5.91269279E+00 -2.93202855E-15  1.00023345E-15  3.65681150E-01
 -5.59778821E-15  2.72680262E-15  2.36672389E-15 -2.94380094E-03  1.09145505E+00
  1.35255727E-15 -5.31139644E+00 -2.58406849E+00 -1.58771182E+00  8.44916786E-16
  1.32149905E-15 -4.61095788E-02 -2.64303455E+00 -2.56294242E+00 -2.95502850E+00
  7.37231458E-16  2.36897917E-16 -1.82947487E-01  4.25727968E-15 -1.29773364E-16
 -1.66961014E-15 -1.12165350E+00 -5.44806353E-01 -5.67277542E-15
HyperPolarizability                        R   N=          10
  2.78142076E-02 -1.66065058E+01  8.18199546E-03 -8.61721847E+00 -1.59618152E-14
 -6.32617298E-15 -1.37355373E-14 -8.45911559E-03 -1.45607655E+00  6.51203523E-14
QEq coupling tensors                       R   N=          18
 -3.02043919E-01  3.47557533E-01  8.82950351E-03 -2.92105696E-17  2.06493261E-17
  2.93214416E-01 -1.73982947E+00  6.73788872E-04 -1.00643243E-01  0.00000000E+00
  0.00000000E+00  1.84047271E+00 -3.02781183E-01 -3.48860647E-01  8.63842779E-03
  2.92698397E-17  2.07021647E-17  2.94142756E-01
