final_water                                                             
Freq      RHF                                                         6-31+G              
Number of atoms                            I                3
Info1-9                                    I   N=           9
          13          10           0           0           0         100
           6           1           2
Charge                                     I                0
Multiplicity                               I                1
Number of electrons                        I               10
Number of alpha electrons                  I                5
Number of beta electrons                   I                5
Number of basis functions                  I               17
Number of independent functions            I               17
Number of point charges in /Mol/           I                0
Number of translation vectors              I                0
Atomic numbers                             I   N=           3
           1           8           1
Nuclear charges                            R   N=           3
  1.00000000E+00  8.00000000E+00  1.00000000E+00
Current cartesian coordinates              R   N=           9
  1.49333718E+00 -9.12586544E-01  0.00000000E+00  0.00000000E+00  8.19952169E-02
  0.00000000E+00 -1.49333718E+00 -9.12586544E-01  0.00000000E+00
Force Field                                I                0
Int Atom Types                             I   N=           3
           0           0           0
MM charges                                 R   N=           3
  0.00000000E+00  0.00000000E+00  0.00000000E+00
Integer atomic weights                     I   N=           3
           1          16           1
Real atomic weights                        R   N=           3
  1.00782504E+00  1.59949146E+01  1.00782504E+00
Atom fragment info                         I   N=           3
           0           0           0
Atom residue num                           I   N=           3
           0           0           0
Nuclear spins                              I   N=           3
           1           0           1
Nuclear ZEff                               R   N=           3
 -1.00000000E+00 -5.60000000E+00 -1.00000000E+00
Nuclear ZNuc                               R   N=           3
  1.00000000E+00  8.00000000E+00  1.00000000E+00
Nuclear QMom                               R   N=           3
  0.00000000E+00  0.00000000E+00  0.00000000E+00
Nuclear GFac                               R   N=           3
  2.79284600E+00  0.00000000E+00  2.79284600E+00
MicOpt                                     I   N=           3
          -1          -1          -1
Number of contracted shells                I                8
Number of primitive shells                 I               19
Pure/Cartesian d shells                    I                1
Pure/Cartesian f shells                    I                0
Highest angular momentum                   I                1
Largest degree of contraction              I                6
Shell types                                I   N=           8
           0           0           0          -1          -1          -1
           0           0
Number of primitives per shell             I   N=           8
           3           1           6           3           1           1
           3           1
Shell to atom map                          I   N=           8
           1           1           2           2           2           2
           3           3
Primitive exponents                        R   N=          19
  1.87311370E+01  2.82539436E+00  6.40121692E-01  1.61277759E-01  5.48467166E+03
  8.25234946E+02  1.88046958E+02  5.29645000E+01  1.68975704E+01  5.79963534E+00
  1.55396162E+01  3.59993359E+00  1.01376175E+00  2.70005823E-01  8.45000000E-02
  1.87311370E+01  2.82539436E+00  6.40121692E-01  1.61277759E-01
Contraction coefficients                   R   N=          19
  3.34946043E-02  2.34726953E-01  8.13757326E-01  1.00000000E+00  1.83107443E-03
  1.39501722E-02  6.84450781E-02  2.32714336E-01  4.70192898E-01  3.58520853E-01
 -1.10777550E-01 -1.48026263E-01  1.13076702E+00  1.00000000E+00  1.00000000E+00
  3.34946043E-02  2.34726953E-01  8.13757326E-01  1.00000000E+00
P(S=P) Contraction coefficients            R   N=          19
  0.00000000E+00  0.00000000E+00  0.00000000E+00  0.00000000E+00  0.00000000E+00
  0.00000000E+00  0.00000000E+00  0.00000000E+00  0.00000000E+00  0.00000000E+00
  7.08742682E-02  3.39752839E-01  7.27158577E-01  1.00000000E+00  1.00000000E+00
  0.00000000E+00  0.00000000E+00  0.00000000E+00  0.00000000E+00
Coordinates of each shell                  R   N=          24
  1.49333718E+00 -9.12586544E-01  0.00000000E+00  1.49333718E+00 -9.12586544E-01
  0.00000000E+00  0.00000000E+00  8.19952169E-02  0.00000000E+00  0.00000000E+00
  8.19952169E-02  0.00000000E+00  0.00000000E+00  8.19952169E-02  0.00000000E+00
  0.00000000E+00  8.19952169E-02  0.00000000E+00 -1.49333718E+00 -9.12586544E-01
  0.00000000E+00 -1.49333718E+00 -9.12586544E-01  0.00000000E+00
Constraint Structure                       R   N=           9
  1.49333718E+00 -9.12586544E-01  0.00000000E+00  0.00000000E+00  8.19952169E-02
  0.00000000E+00 -1.49333718E+00 -9.12586544E-01  0.00000000E+00
Num ILSW                                   I              100
ILSW                                       I   N=         100
           0           1           0           0           2           0
           0           0           0           0           0          -1
           0           0           0           0           2           0
           0           0           0           0           1           0
           1           1           0           0           0           0
           0           0      100000           0          -1           0
           0           0           0           0           0           0
           0           0           0           1           0           0
           0           0           1           0           0           0
           0           0           4          41           0           0
           0           0           0           0           0           0
           0           0           0           3           0           0
           0           0           0           0           0           0
           0           0           0           0           0           0
           0           0           0           0           0           0
           0           0           0           0           0           0
           0           0           0           0
Num RLSW                                   I               41
RLSW                                       R   N=          41
  1.00000000E+00  1.00000000E+00  1.00000000E+00  1.00000000E+00  1.00000000E+00
  0.00000000E+00  0.00000000E+00  1.00000000E+00  0.00000000E+00  0.00000000E+00
  0.00000000E+00  0.00000000E+00  1.00000000E+00  0.00000000E+00  0.00000000E+00
  0.00000000E+00  0.00000000E+00  1.00000000E+00  0.00000000E+00  0.00000000E+00
  0.00000000E+00  0.00000000E+00  1.00000000E+00  0.00000000E+00  0.00000000E+00
  0.00000000E+00  0.00000000E+00  1.00000000E+00  0.00000000E+00  0.00000000E+00
  0.00000000E+00  0.00000000E+00  1.00000000E+00  0.00000000E+00  0.00000000E+00
  0.00000000E+00  0.00000000E+00  0.00000000E+00  1.00000000E+00  1.00000000E+00
  0.00000000E+00
MxBond                                     I                2
NBond                                      I   N=           3
           1           2           1
IBond                                      I   N=           6
           2           0           1           3           2           0
RBond                                      R   N=           6
  1.00000000E+00  0.00000000E+00  1.00000000E+00  1.00000000E+00  1.00000000E+00
  0.00000000E+00
Virial Ratio                               R      2.000359194428529E+00
SCF Energy                                 R     -7.599305877347730E+01
Total Energy                               R     -7.599305877347730E+01
RMS Force                                  R      1.333673760261924E-05
RMS Density                                R      5.770332053998896E-09
Job Status                                 I                1
Nuclear derivative order                   I                2
External E-field                           R   N=          35
  0.00000000E+00  0.00000000E+00  0.00000000E+00  0.00000000E+00  0.00000000E+00
  0.00000000E+00  0.00000000E+00  0.00000000E+00  0.00000000E+00  0.00000000E+00
  0.00000000E+00  0.00000000E+00  0.00000000E+00  0.00000000E+00  0.00000000E+00
  0.00000000E+00  0.00000000E+00  0.00000000E+00  0.00000000E+00  0.00000000E+00
  0.00000000E+00  0.00000000E+00  0.00000000E+00  0.00000000E+00  0.00000000E+00
  0.00000000E+00  0.00000000E+00  0.00000000E+00  0.00000000E+00  0.00000000E+00
  0.00000000E+00  0.00000000E+00  0.00000000E+00  0.00000000E+00  0.00000000E+00
IOpCl                                      I                0
IROHF                                      I                0
Alpha Orbital Energies                     R   N=          17
 -2.05741620E+01 -1.36845731E+00 -7.45384798E-01 -5.61441974E-01 -5.11017947E-01
  1.45119402E-01  2.17882044E-01  2.52012218E-01  2.59516410E-01  3.63696331E-01
  3.68148324E-01  1.33376076E+00  1.36484391E+00  1.40333870E+00  1.41468489E+00
  1.42840387E+00  1.73859093E+00
Alpha MO coefficients                      R   N=         289
  2.21162071E-05  2.00742566E-03  9.95768546E-01  2.21614026E-02  1.04662910E-17
 -1.85567186E-03  1.58367749E-16 -8.37340910E-03  3.84927578E-16  1.37547413E-03
 -1.17253723E-15  3.08707107E-04 -3.81557030E-16  4.65849363E-04 -1.30079727E-16
  2.21162071E-05  2.00742566E-03  1.43347656E-01 -4.09502618E-02 -2.13519949E-01
  4.73385436E-01  3.42983965E-16 -1.05327786E-01  1.04164226E-15  4.82600463E-01
 -1.23070361E-15 -5.98213440E-02  4.76100532E-16  4.73247319E-02  2.08258426E-15
 -1.66497794E-02  6.54446782E-16  1.43347656E-01 -4.09502618E-02  2.64969926E-01
  1.02440430E-01  2.86313414E-16 -4.85990554E-16  5.09758063E-01 -9.01463630E-16
 -2.82910582E-17 -6.00430896E-16  2.63446889E-01 -1.11172868E-15 -2.94706784E-16
  8.93779544E-15  4.85707922E-03 -2.91219035E-15  3.15833336E-16 -2.64969926E-01
 -1.02440430E-01 -1.34075548E-01 -5.85414317E-02 -6.88796998E-02  1.72582098E-01
  1.61355660E-15  5.65838386E-01  5.64570278E-15  2.50661451E-01  2.96725414E-15
  3.88570184E-01  3.78505164E-15  1.79644452E-02  3.18165067E-16  6.52495035E-02
  9.64502379E-16 -1.34075548E-01 -5.85414317E-02  3.94668357E-16  2.45485232E-15
  5.88609786E-16 -1.08797147E-15 -8.22797821E-16 -4.28943486E-15  6.39714801E-01
 -1.10825237E-15  7.47710110E-16 -3.47622817E-15  4.65826398E-01 -3.90465244E-15
 -5.48117953E-16 -8.08185642E-16  8.13029685E-02  1.10976589E-15 -1.65287288E-16
  5.41144530E-02 -3.46814536E-01  6.66813263E-02 -8.77062457E-02 -5.81762580E-15
  1.69949004E-01  1.86667207E-16 -7.53103388E-01 -2.73408788E-14  2.06678387E-01
 -6.32227746E-16  1.76229809E+00 -5.89225749E-14 -7.29214950E-01  1.67517686E-15
  5.41144530E-02 -3.46814536E-01  7.09922357E-03 -3.23942095E-01 -8.96318370E-17
 -1.05106190E-15 -1.90228560E-01  1.62012262E-15  1.64578602E-15  7.81842363E-15
 -4.25605062E-01  2.80029780E-15  3.46864726E-15  2.56606166E-14  1.44390366E+00
 -2.18333198E-14 -9.37717208E-15 -7.09922357E-03  3.23942095E-01  6.44191712E-16
  5.25934921E-15  5.75625500E-16 -7.65791180E-16 -2.26698229E-15 -2.67690162E-15
 -2.07794129E-01 -7.10143051E-15 -5.27899784E-15 -7.17921764E-15 -5.16029086E-01
  6.32752621E-15  8.39580059E-15  1.97210167E-14  1.23408586E+00 -2.09624514E-17
 -5.19788519E-16  3.69221916E-02  5.43880161E-01  5.42807486E-02 -6.81949230E-02
  2.82888494E-15 -1.11174557E-01  3.54489072E-15 -7.15606700E-01  1.00412813E-14
 -3.19513289E-01  8.17335277E-15  7.32081192E-02  3.40726428E-14  1.29958185E+00
 -1.98976065E-14  3.69221916E-02  5.43880161E-01  1.02566893E-01  2.15833655E+00
 -1.77245266E-13  2.06033296E-13 -2.76368998E-01 -7.43334023E-13  2.92591766E-16
  3.26411184E-12 -8.10306317E-01 -2.33236018E-12  2.64771276E-15  1.07435687E-11
 -1.32940723E+00 -2.79636359E-12 -4.93907772E-15 -1.02566893E-01 -2.15833655E+00
 -1.31283298E-01 -2.42453837E+00 -5.06976222E-02  5.87162381E-02  9.65674972E-13
 -2.14043067E-01  9.65103504E-16  9.36347924E-01  2.80519511E-12 -6.67073188E-01
  1.61894955E-15  3.11022076E+00  4.60332528E-12 -8.19034097E-01 -4.73352527E-15
 -1.31283298E-01 -2.42453837E+00 -8.83674114E-01  1.65331621E+00 -1.96018682E-14
  1.61428218E-13  7.43438818E-01 -1.29528855E-13  2.21353163E-15 -2.31185053E-13
 -4.15455383E-01  6.92314349E-14 -3.30724444E-15 -5.38729293E-13 -7.63990466E-01
  1.88177276E-13  1.67224205E-15  8.83674114E-01 -1.65331621E+00 -7.48356526E-01
  1.76516877E+00 -5.42432000E-02  5.40100026E-01 -3.61854064E-13 -7.39361934E-01
 -1.68558236E-14 -8.85483222E-01  4.90270997E-13  7.85177254E-01  2.41994619E-14
 -1.65575662E+00  1.31439680E-14  3.67260322E-01 -1.02080233E-14 -7.48356526E-01
  1.76516877E+00  2.10469982E-14 -3.64784204E-14  8.99128362E-16 -1.41738419E-14
  1.89688391E-14  1.61193914E-14 -9.90974736E-01  2.43833234E-14 -4.16963615E-14
 -2.29293472E-14  1.43117349E+00  2.61544259E-14  2.08361064E-14 -2.36021135E-15
 -6.48297897E-01 -6.57080598E-15 -2.13650413E-14 -6.84425273E-01  3.72897766E-01
 -1.71734273E-14 -5.46563887E-14 -7.34994025E-01  5.86565806E-13 -2.25008135E-14
  2.94611673E-13  1.75526517E+00 -1.07473382E-12  3.47111232E-14 -7.99895745E-14
 -8.36129704E-01  4.44370516E-13 -1.63355516E-14  6.84425273E-01 -3.72897766E-01
  7.68454839E-01 -7.43321137E-01  4.62356823E-02 -1.20925286E-01 -3.83843477E-13
 -6.84324652E-01 -5.60465007E-15 -1.23462883E-01  1.05434970E-12  1.44007828E+00
  8.53156089E-15  7.16296801E-01 -6.03078440E-13 -8.47942440E-01 -4.61645728E-15
  7.68454839E-01 -7.43321137E-01 -4.56458349E-01 -4.03865171E-02  5.65017348E-02
 -1.69052533E+00  6.57625800E-15 -1.40383064E-01  3.71196449E-15  2.66392167E+00
 -1.69187001E-14 -1.39182876E-01 -5.80649363E-15 -8.48802270E-01  1.67823847E-15
 -6.67157245E-02  2.56253952E-15 -4.56458349E-01 -4.03865171E-02
Total SCF Density                          R   N=         153
  2.17467730E-01  5.82450558E-02  3.12041891E-02 -4.27009562E-02  2.95498907E-02
  2.08378036E+00  8.94402873E-02 -5.88879465E-02 -1.81794019E-01  5.08738959E-01
  2.70141112E-01  1.04439670E-01 -5.60052765E-17  3.86657882E-16  5.19706565E-01
 -1.81927248E-01 -5.76310279E-02 -3.66660289E-02  9.55036230E-02  8.34677492E-16
  6.62540931E-01 -7.25302609E-16  2.38932416E-15 -1.54091399E-16  1.54992741E-15
 -1.08155508E-15  6.81065270E-16  8.18470053E-01  7.11437774E-02 -6.89070090E-02
 -2.57296578E-01  5.43060286E-01  5.27637060E-16  1.82036342E-01  2.41513114E-15
  5.91608967E-01  1.39611005E-01  5.39752251E-02  1.03424670E-15 -3.80008772E-16
  2.68588352E-01  3.14082298E-15  9.41736066E-16 -2.31334230E-17  1.38808527E-01
 -1.21345959E-01 -4.05899880E-02 -2.52437869E-02  7.75443736E-02  7.95279184E-17
  4.52332446E-01 -1.84274907E-16  1.37036481E-01  1.86851365E-15  3.09134546E-01
 -6.67004809E-16  1.73982512E-15 -2.51151179E-15  6.91640622E-16 -1.06702021E-15
  1.91249508E-16  5.95992083E-01  1.34419560E-15  5.41327044E-16 -3.57308806E-16
  4.33988466E-01  8.75060680E-03 -5.97800959E-03 -2.20695182E-02  5.10200438E-02
  9.20266959E-15  1.03595812E-02 -4.69419542E-15  5.46786930E-02  4.69963118E-15
  8.29968664E-03 -3.45744894E-15  5.12489368E-03  2.57395984E-03  9.95122566E-04
 -1.69028048E-15  2.05991664E-15  4.95187059E-03 -8.59888325E-17 -7.01553157E-16
  2.17017288E-15  2.55916482E-03 -1.37562139E-17 -5.13518451E-16  2.95134384E-16
  4.71824372E-05 -2.22701190E-02 -6.27410273E-03 -9.50856041E-04  6.77891390E-03
 -2.76986895E-15  7.73469874E-02 -3.31796704E-16  1.66328864E-02 -1.10585073E-15
  5.27013290E-02 -2.75949322E-16  7.68737183E-04 -5.64738865E-17  9.06985975E-03
  1.60536790E-16  2.96833282E-16 -5.75691311E-16  7.69846720E-16  1.88205368E-16
  2.56637276E-16  1.04021425E-01  9.37169778E-16  2.87992723E-16  1.05640780E-16
  7.57461378E-02 -5.38403445E-16 -8.60591781E-17 -2.74631651E-17  1.32203454E-02
 -6.33685159E-02 -5.03294764E-02 -4.27009562E-02  8.94402873E-02 -2.70141112E-01
 -1.81927248E-01  2.19599457E-16  7.11437774E-02 -1.39611005E-01 -1.21345959E-01
  3.11571542E-16  8.75060680E-03 -2.57395984E-03 -2.22701190E-02 -5.79294483E-17
  2.17467730E-01 -5.03294764E-02 -1.07719774E-02  2.95498907E-02 -5.88879465E-02
 -1.04439670E-01 -5.76310279E-02 -9.51367424E-16 -6.89070090E-02 -5.39752251E-02
 -4.05899880E-02 -5.80475715E-16 -5.97800959E-03 -9.95122566E-04 -6.27410273E-03
 -2.58633385E-16  5.82450558E-02  3.12041891E-02
Mulliken Charges                           R   N=           3
  4.60606700E-01 -9.21213400E-01  4.60606700E-01
ONIOM Charges                              I   N=          16
           0           0           0           0           0           0
           0           0           0           0           0           0
           0           0           0           0
ONIOM Multiplicities                       I   N=          16
           1           0           0           0           0           0
           0           0           0           0           0           0
           0           0           0           0
Atom Layers                                I   N=           3
           1           1           1
Atom Modifiers                             I   N=           3
           0           0           0
Force Field                                I                0
Int Atom Modified Types                    I   N=           3
           0           0           0
Link Atoms                                 I   N=           3
           0           0           0
Atom Modified MM Charges                   R   N=           3
  0.00000000E+00  0.00000000E+00  0.00000000E+00
Link Distances                             R   N=          12
  0.00000000E+00  0.00000000E+00  0.00000000E+00  0.00000000E+00  0.00000000E+00
  0.00000000E+00  0.00000000E+00  0.00000000E+00  0.00000000E+00  0.00000000E+00
  0.00000000E+00  0.00000000E+00
Cartesian Gradient                         R   N=           9
  1.93866660E-05 -1.18962984E-05 -2.17645744E-17 -2.54895931E-16  2.37925968E-05
  1.50789260E-16 -1.93866660E-05 -1.18962984E-05 -1.29024686E-16
Cartesian Force Constants                  R   N=          45
  4.45456525E-01 -2.42395549E-01  2.00814127E-01  9.78497064E-17  7.08712417E-17
  1.24722642E-05 -4.17395254E-01  2.77982640E-01 -1.29386921E-17  8.34790509E-01
  2.06808458E-01 -2.16475258E-01 -1.25078121E-16 -5.49480783E-10  4.32950516E-01
 -1.42960544E-16 -1.35934493E-16 -1.19618284E-05 -4.23875250E-16 -9.93931795E-17
  2.39236523E-05 -2.80612709E-02 -3.55870912E-02 -8.49110143E-17 -4.17395254E-01
 -2.06808457E-01  5.66835795E-16  4.45456525E-01  3.55870910E-02  1.56611314E-02
  5.42068791E-17 -2.77982639E-01 -2.16475258E-01  2.35327673E-16  2.42395548E-01
  2.00814127E-01  4.51108381E-17  6.50632514E-17 -5.10435823E-07  4.36813942E-16
  2.24471300E-16 -1.19618284E-05 -4.81924780E-16 -2.89534552E-16  1.24722642E-05
Dipole Moment                              R   N=           3
 -2.58126853E-15 -1.01600166E+00  1.84389992E-15
Dipole Derivatives                         R   N=          27
  3.14143906E-01  1.01489085E-01  7.44049958E-17  1.30954379E-01  2.47353308E-01
 -1.23849570E-16 -9.35436907E-16  4.58564442E-16  5.10768294E-01 -6.28287812E-01
  4.53041342E-09  8.85993748E-16 -5.37408667E-10 -4.94706613E-01 -8.15266371E-16
  5.78217661E-16 -5.82467932E-16 -1.02153659E+00  3.14143906E-01 -1.01489089E-01
 -9.60398743E-16 -1.30954379E-01  2.47353304E-01  9.39115941E-16  3.57219247E-16
  1.23903490E-16  5.10768294E-01
Polarizability                             R   N=           6
  7.04680311E+00  1.07915244E-14  4.75660351E+00  3.71691457E-15 -6.90476630E-15
  3.85357533E+00
Polarizability Derivatives                 R   N=          54
  5.23047090E+00 -2.42622981E+00  1.59539516E+00 -3.99550599E-16 -1.61805799E-15
  5.60407997E-02 -2.58162984E+00  2.38270618E+00 -2.63462711E+00 -2.67880650E-15
 -3.64307035E-15 -1.97965602E-01  1.05458074E-14 -7.84114548E-15  2.41389011E-15
  1.06915810E+00 -4.53973791E-01 -2.44360393E-14  3.73589472E-08  4.85245963E+00
  3.96812751E-08 -1.25354230E-14  4.39436298E-16  4.32200559E-08  5.16325972E+00
  2.76792462E-08  5.26925425E+00 -8.47272313E-16 -7.04295911E-15  3.95931245E-01
 -1.22095246E-14  8.22892531E-15  3.92777232E-15  9.67719578E-15  9.07947582E-01
  2.16955026E-14 -5.23047093E+00 -2.42622982E+00 -1.59539520E+00  4.47905004E-15
  1.17862169E-15 -5.60408429E-02 -2.58162988E+00 -2.38270621E+00 -2.63462714E+00
  3.52607881E-15  2.23010586E-15 -1.97965643E-01  1.66371725E-15 -3.87779828E-16
 -6.34166243E-15 -1.06915810E+00 -4.53973791E-01 -1.41713105E-14
HyperPolarizability                        R   N=          10
 -5.60092540E-13 -1.50923838E+01  1.26800085E-13 -8.22725625E+00 -1.04194247E-13
  1.08793336E-15 -2.39725343E-13  8.50030740E-14 -1.94137380E+00 -1.16967159E-12
QEq coupling tensors                       R   N=          18
 -3.38031776E-01  3.65265838E-01  2.71573108E-02 -4.97033963E-16  2.56198069E-16
  3.10874465E-01 -1.77546820E+00  1.74860126E-15 -8.26814687E-03 -1.12224732E-14
 -4.68370147E-16  1.78373635E+00 -3.38031776E-01 -3.65265838E-01  2.71573108E-02
  8.14922707E-16  5.21655998E-16  3.10874465E-01
