new_step_water                                                          
Freq      RHF                                                         6-31+G              
Number of atoms                            I                3
Info1-9                                    I   N=           9
          13          10           0           0           0         100
           6           1           2
Charge                                     I                0
Multiplicity                               I                1
Number of electrons                        I               10
Number of alpha electrons                  I                5
Number of beta electrons                   I                5
Number of basis functions                  I               17
Number of independent functions            I               17
Number of point charges in /Mol/           I                0
Number of translation vectors              I                0
Atomic numbers                             I   N=           3
           1           8           1
Nuclear charges                            R   N=           3
  1.00000000E+00  8.00000000E+00  1.00000000E+00
Current cartesian coordinates              R   N=           9
  1.49284585E+00 -9.12340880E-01  0.00000000E+00  0.00000000E+00  8.15038881E-02
  0.00000000E+00 -1.49284585E+00 -9.12340880E-01  0.00000000E+00
Force Field                                I                0
Int Atom Types                             I   N=           3
           0           0           0
MM charges                                 R   N=           3
  0.00000000E+00  0.00000000E+00  0.00000000E+00
Integer atomic weights                     I   N=           3
           1          16           1
Real atomic weights                        R   N=           3
  1.00782504E+00  1.59949146E+01  1.00782504E+00
Atom fragment info                         I   N=           3
           0           0           0
Atom residue num                           I   N=           3
           0           0           0
Nuclear spins                              I   N=           3
           1           0           1
Nuclear ZEff                               R   N=           3
 -1.00000000E+00 -5.60000000E+00 -1.00000000E+00
Nuclear ZNuc                               R   N=           3
  1.00000000E+00  8.00000000E+00  1.00000000E+00
Nuclear QMom                               R   N=           3
  0.00000000E+00  0.00000000E+00  0.00000000E+00
Nuclear GFac                               R   N=           3
  2.79284600E+00  0.00000000E+00  2.79284600E+00
MicOpt                                     I   N=           3
          -1          -1          -1
Number of contracted shells                I                8
Number of primitive shells                 I               19
Pure/Cartesian d shells                    I                1
Pure/Cartesian f shells                    I                0
Highest angular momentum                   I                1
Largest degree of contraction              I                6
Shell types                                I   N=           8
           0           0           0          -1          -1          -1
           0           0
Number of primitives per shell             I   N=           8
           3           1           6           3           1           1
           3           1
Shell to atom map                          I   N=           8
           1           1           2           2           2           2
           3           3
Primitive exponents                        R   N=          19
  1.87311370E+01  2.82539436E+00  6.40121692E-01  1.61277759E-01  5.48467166E+03
  8.25234946E+02  1.88046958E+02  5.29645000E+01  1.68975704E+01  5.79963534E+00
  1.55396162E+01  3.59993359E+00  1.01376175E+00  2.70005823E-01  8.45000000E-02
  1.87311370E+01  2.82539436E+00  6.40121692E-01  1.61277759E-01
Contraction coefficients                   R   N=          19
  3.34946043E-02  2.34726953E-01  8.13757326E-01  1.00000000E+00  1.83107443E-03
  1.39501722E-02  6.84450781E-02  2.32714336E-01  4.70192898E-01  3.58520853E-01
 -1.10777550E-01 -1.48026263E-01  1.13076702E+00  1.00000000E+00  1.00000000E+00
  3.34946043E-02  2.34726953E-01  8.13757326E-01  1.00000000E+00
P(S=P) Contraction coefficients            R   N=          19
  0.00000000E+00  0.00000000E+00  0.00000000E+00  0.00000000E+00  0.00000000E+00
  0.00000000E+00  0.00000000E+00  0.00000000E+00  0.00000000E+00  0.00000000E+00
  7.08742682E-02  3.39752839E-01  7.27158577E-01  1.00000000E+00  1.00000000E+00
  0.00000000E+00  0.00000000E+00  0.00000000E+00  0.00000000E+00
Coordinates of each shell                  R   N=          24
  1.49284585E+00 -9.12340880E-01  0.00000000E+00  1.49284585E+00 -9.12340880E-01
  0.00000000E+00  0.00000000E+00  8.15038881E-02  0.00000000E+00  0.00000000E+00
  8.15038881E-02  0.00000000E+00  0.00000000E+00  8.15038881E-02  0.00000000E+00
  0.00000000E+00  8.15038881E-02  0.00000000E+00 -1.49284585E+00 -9.12340880E-01
  0.00000000E+00 -1.49284585E+00 -9.12340880E-01  0.00000000E+00
Constraint Structure                       R   N=           9
  1.49284585E+00 -9.12340880E-01  0.00000000E+00  0.00000000E+00  8.15038881E-02
  0.00000000E+00 -1.49284585E+00 -9.12340880E-01  0.00000000E+00
Num ILSW                                   I              100
ILSW                                       I   N=         100
           0           1           0           1           2           0
           0           0           0           0           0          -1
           0           0           0           0           2           0
           0           0           0           0           1           0
           1           1           0           0           0           0
           0           0      100000           0          -1           0
           0           0           0           0           0           0
           0           0           0           1           0           0
           0           0           1           0           0           0
           0           0           4          41           0           0
           0           0           0           0           0           0
           0           0           0           3           0           0
           0           0           0           0           0           0
           0           0           0           0           0           0
           0           0           0           0           0           0
           0           0           0           0           0           0
           0           0           0           0
Num RLSW                                   I               41
RLSW                                       R   N=          41
  1.00000000E+00  1.00000000E+00  1.00000000E+00  1.00000000E+00  1.00000000E+00
  0.00000000E+00  0.00000000E+00  1.00000000E+00  0.00000000E+00  0.00000000E+00
  0.00000000E+00  0.00000000E+00  1.00000000E+00  0.00000000E+00  0.00000000E+00
  0.00000000E+00  0.00000000E+00  1.00000000E+00  0.00000000E+00  0.00000000E+00
  0.00000000E+00  0.00000000E+00  1.00000000E+00  0.00000000E+00  0.00000000E+00
  0.00000000E+00  0.00000000E+00  1.00000000E+00  0.00000000E+00  0.00000000E+00
  0.00000000E+00  0.00000000E+00  1.00000000E+00  0.00000000E+00  0.00000000E+00
  0.00000000E+00  0.00000000E+00  0.00000000E+00  1.00000000E+00  1.00000000E+00
  0.00000000E+00
MxBond                                     I                2
NBond                                      I   N=           3
           1           2           1
IBond                                      I   N=           6
           2           0           1           3           2           0
RBond                                      R   N=           6
  1.00000000E+00  0.00000000E+00  1.00000000E+00  1.00000000E+00  1.00000000E+00
  0.00000000E+00
Virial Ratio                               R      2.000336210733204E+00
SCF Energy                                 R     -7.599305842803315E+01
Total Energy                               R     -7.599305842803315E+01
RMS Force                                  R      2.671052891667071E-04
RMS Density                                R      5.748013568450749E-09
Job Status                                 I                1
Nuclear derivative order                   I                2
External E-field                           R   N=          35
  0.00000000E+00  0.00000000E+00  0.00000000E+00  0.00000000E+00  0.00000000E+00
  0.00000000E+00  0.00000000E+00  0.00000000E+00  0.00000000E+00  0.00000000E+00
  0.00000000E+00  0.00000000E+00  0.00000000E+00  0.00000000E+00  0.00000000E+00
  0.00000000E+00  0.00000000E+00  0.00000000E+00  0.00000000E+00  0.00000000E+00
  0.00000000E+00  0.00000000E+00  0.00000000E+00  0.00000000E+00  0.00000000E+00
  0.00000000E+00  0.00000000E+00  0.00000000E+00  0.00000000E+00  0.00000000E+00
  0.00000000E+00  0.00000000E+00  0.00000000E+00  0.00000000E+00  0.00000000E+00
IOpCl                                      I                0
IROHF                                      I                0
Alpha Orbital Energies                     R   N=          17
 -2.05740690E+01 -1.36866853E+00 -7.45683676E-01 -5.61467420E-01 -5.11041307E-01
  1.45129192E-01  2.17852143E-01  2.52006333E-01  2.59528760E-01  3.63910149E-01
  3.68275604E-01  1.33443662E+00  1.36538890E+00  1.40333691E+00  1.41436099E+00
  1.42821006E+00  1.73842711E+00
Alpha MO coefficients                      R   N=         289
  2.06288636E-05  2.01170185E-03  9.95768166E-01  2.21635025E-02 -4.50146203E-16
 -1.85609482E-03  2.53160435E-16 -8.37603499E-03  2.33338950E-15  1.37557909E-03
 -3.94093016E-16  3.04326058E-04 -1.06308232E-15  4.67121295E-04  3.60185309E-16
  2.06288636E-05  2.01170185E-03  1.43457138E-01 -4.10379060E-02 -2.13514583E-01
  4.73370630E-01  8.06925352E-16 -1.05402149E-01 -6.65603231E-17  4.82477264E-01
 -1.69047237E-16 -5.97907023E-02 -4.55642696E-17  4.74098752E-02  5.05826347E-17
 -1.66792534E-02  3.87371660E-18  1.43457138E-01 -4.10379060E-02  2.65059116E-01
  1.02293207E-01  3.25592131E-17  8.95200515E-17  5.09822368E-01 -2.31080002E-16
 -1.48727400E-15 -2.56867298E-15  2.63286587E-01  8.70489803E-16 -1.05425792E-15
 -1.59719806E-14  4.89938395E-03  5.38092112E-15  1.78375960E-16 -2.65059116E-01
 -1.02293207E-01 -1.34024277E-01 -5.84157373E-02 -6.88795614E-02  1.72562750E-01
 -1.25146002E-16  5.65910459E-01  2.10905235E-16  2.50696650E-01 -7.95348194E-16
  3.88605463E-01  3.32785409E-16  1.79369041E-02 -2.86792561E-15  6.52597113E-02
  7.06621577E-18 -1.34024277E-01 -5.84157373E-02  2.52574089E-16  7.51926668E-16
  4.58949633E-17  9.35013837E-18  9.89678337E-16 -5.36267375E-17  6.39705936E-01
 -6.98223614E-16  2.10789934E-16  7.65607053E-17  4.65846808E-01 -2.04496715E-16
  9.69540000E-16 -2.66053021E-16  8.12843975E-02 -3.87830020E-17  3.47344216E-16
  5.40021979E-02 -3.47952717E-01  6.66399591E-02 -8.77097972E-02  3.81373467E-15
  1.69763576E-01 -1.02945450E-16 -7.52337031E-01  1.70374507E-14  2.06304262E-01
 -1.37430873E-17  1.76360352E+00  5.10755290E-14 -7.29695291E-01  1.28591890E-16
  5.40021979E-02 -3.47952717E-01  7.04592076E-03 -3.24852332E-01 -1.73519310E-16
  4.39573290E-15 -1.90057499E-01 -3.43794304E-15  1.24289715E-16 -7.38742930E-15
 -4.25090296E-01 -7.53881476E-15  3.58341558E-16 -8.78043910E-15  1.44439139E+00
  2.50802420E-14 -7.99641109E-16 -7.04592076E-03  3.24852332E-01 -6.34751077E-17
 -2.63707526E-15 -3.80206374E-18 -4.77115127E-19  1.86985302E-16 -2.07664566E-16
 -2.07784513E-01  1.93018075E-16  4.70247955E-16 -5.51438961E-16 -5.16030018E-01
  4.70287844E-16  2.19071195E-15  8.18113725E-16  1.23408900E+00  4.00297223E-17
  1.76761071E-15  3.68780135E-02  5.42844602E-01  5.42791620E-02 -6.81642912E-02
  1.08143478E-14 -1.11267014E-01 -4.24871188E-16 -7.15732170E-01  3.51174245E-14
 -3.19752004E-01  5.59630997E-16  7.49070752E-02  3.23671043E-14  1.29894891E+00
 -1.07521741E-15  3.68780135E-02  5.42844602E-01  1.02489234E-01  2.16015125E+00
  6.38816944E-14 -1.03124825E-13 -2.76327098E-01  2.46337961E-13  3.25549764E-16
 -1.09127727E-12 -8.11183467E-01  7.66305755E-13 -1.11259114E-15 -3.59077093E-12
 -1.32961117E+00  9.83357987E-13  2.04911288E-15 -1.02489234E-01 -2.16015125E+00
 -1.31294184E-01 -2.42574341E+00 -5.07911770E-02  5.87207186E-02 -3.21400950E-13
 -2.13948285E-01 -7.33127341E-18  9.38945266E-01 -9.38882280E-13 -6.67175132E-01
  2.89252345E-16  3.11017208E+00 -1.55624911E-12 -8.18948420E-01 -7.46078462E-16
 -1.31294184E-01 -2.42574341E+00 -8.83907468E-01  1.65367410E+00  2.32040153E-14
 -2.49210217E-13  7.43784537E-01  1.70972348E-13  6.30691836E-15  3.71807978E-13
 -4.15211677E-01 -1.39748276E-13 -8.01422425E-15  5.30812755E-13 -7.64219878E-01
 -1.75517528E-13  3.81011620E-15  8.83907468E-01 -1.65367410E+00 -7.46731668E-01
  1.76338004E+00 -5.41260504E-02  5.39579275E-01  3.30076825E-13 -7.41294884E-01
  3.97155167E-15 -8.85348251E-01 -3.73410484E-13  7.88716842E-01 -5.53444151E-15
 -1.65438895E+00 -1.21704531E-13  3.64751297E-01  2.76279801E-15 -7.46731668E-01
  1.76338004E+00  1.62307338E-14  8.87238515E-15 -6.51230662E-16  4.06686618E-15
  3.79966166E-14  3.34877503E-15 -9.90982475E-01 -3.94441132E-15 -8.31180327E-14
 -9.24297140E-15  1.43116651E+00 -1.39887841E-14  3.26291083E-14  9.02139703E-15
 -6.48294235E-01 -3.56534567E-14  2.03458099E-14 -6.84413399E-01  3.71893862E-01
 -1.13425945E-15  4.11303152E-14 -7.34723166E-01 -1.90036390E-13 -4.55249876E-14
 -1.12191263E-13  1.75589484E+00  2.89364847E-13  6.61573103E-14 -1.58631704E-13
 -8.35699999E-01 -5.26364953E-14 -2.96712794E-14  6.84413399E-01 -3.71893862E-01
  7.70774760E-01 -7.47337464E-01  4.63560913E-02 -1.21116155E-01  3.41864770E-14
 -6.82142534E-01 -8.90038308E-15 -1.23862497E-01 -1.86156886E-13  1.43833255E+00
  1.32263201E-14  7.20979128E-01  1.61576137E-13 -8.48578564E-01 -5.97286823E-15
  7.70774760E-01 -7.47337464E-01 -4.55561364E-01 -4.26389558E-02  5.65328713E-02
 -1.69074468E+00 -2.01584318E-14 -1.40835361E-01 -7.11388998E-16  2.66498070E+00
  1.12425640E-14 -1.38468300E-01  7.08081178E-16 -8.46662229E-01  6.59870496E-14
 -6.78766390E-02 -2.97254491E-16 -4.55561364E-01 -4.26389558E-02
Total SCF Density                          R   N=         153
  2.17597585E-01  5.81114702E-02  3.11289107E-02 -4.27562320E-02  2.95780608E-02
  2.08377422E+00  8.95625105E-02 -5.89238667E-02 -1.81775738E-01  5.08697754E-01
  2.70266132E-01  1.04302731E-01 -1.19062434E-15  7.92083465E-16  5.19837694E-01
 -1.81932938E-01 -5.74726543E-02 -3.66460171E-02  9.54392915E-02 -5.45694675E-16
  6.62735411E-01 -5.40904278E-16  6.39589041E-16  5.62265844E-16  3.29578923E-17
 -2.50284887E-16  1.83187695E-16  8.18447370E-01  7.12303946E-02 -6.89226726E-02
 -2.57248792E-01  5.42931655E-01 -1.89569410E-15  1.82066525E-01 -8.56037756E-16
  5.91406556E-01  1.39573020E-01  5.38648589E-02  4.84592935E-15 -2.83967911E-16
  2.68458782E-01 -9.94898354E-16 -5.13471443E-16 -1.95358854E-15  1.38639653E-01
 -1.21319882E-01 -4.04884443E-02 -2.52620582E-02  7.75723048E-02  6.92593815E-16
  4.52430822E-01  2.70526390E-16  1.37125823E-01 -1.33142298E-16  3.09182052E-01
 -4.25851625E-16  4.48152747E-16 -7.68477469E-16  6.29576576E-17 -1.52891551E-16
  3.37757890E-16  5.96009937E-01 -5.21039684E-16 -3.58752303E-16  3.34340003E-16
  4.34026497E-01  8.79462136E-03 -5.98557454E-03 -2.21102953E-02  5.10888579E-02
 -1.62139969E-14  1.03060281E-02 -2.60226697E-16  5.47367192E-02 -8.45355744E-15
  8.27225563E-03 -1.83150262E-16  5.13904282E-03  2.59725276E-03  1.00234740E-03
 -1.74336536E-15 -9.88151660E-16  4.99563105E-03 -3.25495917E-15  1.22586753E-15
 -1.39650974E-15  2.57988415E-03 -2.22942684E-15  8.92983800E-16 -2.55239958E-16
  4.80079261E-05 -2.22782679E-02 -6.25354561E-03 -9.37303869E-04  6.75255911E-03
  5.44295554E-15  7.73766305E-02 -3.10407298E-16  1.66182356E-02  2.73745944E-15
  5.27163743E-02 -2.03293165E-16  7.59876035E-04 -3.24274135E-16  9.07449122E-03
  1.34853210E-16  1.59038787E-16  7.22155592E-16  2.35921153E-17  3.42770923E-16
 -2.87401556E-18  1.03996223E-01 -1.12262308E-16  1.28195861E-16  1.84660240E-17
  7.57321543E-02 -3.24047600E-17  1.59364814E-16 -4.21223616E-17  1.32143066E-02
 -6.34277546E-02 -5.03435185E-02 -4.27562320E-02  8.95625105E-02 -2.70266132E-01
 -1.81932938E-01  6.63192123E-16  7.12303946E-02 -1.39573020E-01 -1.21319882E-01
  4.20455523E-16  8.79462136E-03 -2.59725276E-03 -2.22782679E-02 -1.01633058E-16
  2.17597585E-01 -5.03435185E-02 -1.07266905E-02  2.95780608E-02 -5.89238667E-02
 -1.04302731E-01 -5.74726543E-02  7.30513558E-16 -6.89226726E-02 -5.38648589E-02
 -4.04884443E-02  5.02579556E-16 -5.98557454E-03 -1.00234740E-03 -6.25354561E-03
  2.02797086E-17  5.81114702E-02  3.11289107E-02
Mulliken Charges                           R   N=           3
  4.60668368E-01 -9.21336736E-01  4.60668368E-01
ONIOM Charges                              I   N=          16
           0           0           0           0           0           0
           0           0           0           0           0           0
           0           0           0           0
ONIOM Multiplicities                       I   N=          16
           1           0           0           0           0           0
           0           0           0           0           0           0
           0           0           0           0
Atom Layers                                I   N=           3
           1           1           1
Atom Modifiers                             I   N=           3
           0           0           0
Force Field                                I                0
Int Atom Modified Types                    I   N=           3
           0           0           0
Link Atoms                                 I   N=           3
           0           0           0
Atom Modified MM Charges                   R   N=           3
  0.00000000E+00  0.00000000E+00  0.00000000E+00
Link Distances                             R   N=          12
  0.00000000E+00  0.00000000E+00  0.00000000E+00  0.00000000E+00  0.00000000E+00
  0.00000000E+00  0.00000000E+00  0.00000000E+00  0.00000000E+00  0.00000000E+00
  0.00000000E+00  0.00000000E+00
Cartesian Gradient                         R   N=           9
 -3.66314176E-04  2.49577967E-04  1.72693451E-16  9.23658936E-16 -4.99155934E-04
  5.07763164E-17  3.66314176E-04  2.49577967E-04 -2.23469768E-16
Cartesian Force Constants                  R   N=          45
  4.46750373E-01 -2.43278995E-01  2.01107473E-01 -2.55753717E-16  1.25924853E-16
 -2.48251073E-04 -4.18683833E-01  2.78901077E-01  2.39192919E-16  8.37367666E-01
  2.07656913E-01 -2.16785175E-01 -1.13682554E-16 -5.45272739E-10  4.33570350E-01
  2.69857344E-16 -1.57034793E-16  2.51122967E-04 -4.74928764E-16 -7.96466786E-19
 -5.02245936E-04 -2.80665401E-02 -3.56220820E-02  1.65607973E-17 -4.18683833E-01
 -2.07656913E-01  2.05071420E-16  4.46750373E-01  3.56220818E-02  1.56777022E-02
 -1.22422987E-17 -2.78901076E-01 -2.16785175E-01  1.57831259E-16  2.43278995E-01
  2.01107473E-01 -1.41036268E-17  3.11099395E-17 -2.87189341E-06  2.35735844E-16
  1.14479021E-16  2.51122967E-04 -2.21632218E-16 -1.45588961E-16 -2.48251073E-04
Dipole Moment                              R   N=           3
 -2.13024043E-15 -1.01573658E+00 -1.30345207E-16
Dipole Derivatives                         R   N=          27
  3.14390884E-01  1.01469048E-01 -4.15399064E-16  1.30899363E-01  2.47620661E-01
  3.18326655E-16 -3.76241985E-16  2.71651166E-16  5.11013700E-01 -6.28781768E-01
  4.46237536E-09  5.76419261E-16 -5.12297229E-10 -4.95241319E-01 -6.08306364E-16
  2.49043879E-16 -4.38768438E-16 -1.02202740E+00  3.14390884E-01 -1.01469052E-01
 -1.61020196E-16 -1.30899362E-01  2.47620657E-01  2.89979709E-16  1.27198105E-16
  1.67117272E-16  5.11013700E-01
Polarizability                             R   N=           6
  7.03786359E+00  2.14489620E-15  4.75115606E+00  7.35420457E-15 -3.53874586E-15
  3.85322803E+00
Polarizability Derivatives                 R   N=          54
  5.22377887E+00 -2.42311630E+00  1.59474612E+00 -2.82774886E-15  1.73566442E-15
  5.63864920E-02 -2.57859239E+00  2.37905021E+00 -2.63005854E+00 -1.40454086E-16
 -2.16741577E-15 -1.98319746E-01 -1.73470717E-15 -7.96068855E-16  2.37469076E-16
  1.06663218E+00 -4.51744572E-01 -9.05337074E-15  3.65960737E-08  4.84623262E+00
  3.89621704E-08  8.48374546E-16 -1.86999779E-15  4.25827909E-08  5.15718482E+00
  2.70843773E-08  5.26011712E+00  7.87489237E-16  1.49068968E-15  3.96639531E-01
 -2.98189684E-16  4.33102839E-15  1.09938970E-15  1.12211713E-14  9.03489144E-01
  1.15983660E-14 -5.22377891E+00 -2.42311632E+00 -1.59474615E+00  1.60585034E-15
  1.34333365E-16 -5.63865345E-02 -2.57859243E+00 -2.37905023E+00 -2.63005858E+00
 -6.47035152E-16  3.03202114E-16 -1.98319786E-01  2.03289686E-15 -3.53495953E-15
 -1.33685877E-15 -1.06663218E+00 -4.51744572E-01 -3.29204319E-15
HyperPolarizability                        R   N=          10
 -1.13651644E-13 -1.50485968E+01 -3.11959177E-13 -8.21418293E+00  1.55659786E-14
 -6.45355299E-15  1.45118938E-14 -2.08328808E-14 -1.94896714E+00 -7.01536172E-14
QEq coupling tensors                       R   N=          18
 -3.39027184E-01  3.66222141E-01  2.73615440E-02 -3.53715422E-17  3.83594472E-17
  3.11665640E-01 -1.77534193E+00  9.43689571E-16 -7.17044882E-03  3.62397452E-16
  0.00000000E+00  1.78251238E+00 -3.39027184E-01 -3.66222141E-01  2.73615440E-02
 -3.53715422E-17 -3.83594472E-17  3.11665640E-01
