water_n                                                                 
Freq      RHF                                                         6-31+G              
Number of atoms                            I                3
Info1-9                                    I   N=           9
          13          10           0           0           0         100
           6           1           2
Charge                                     I                0
Multiplicity                               I                1
Number of electrons                        I               10
Number of alpha electrons                  I                5
Number of beta electrons                   I                5
Number of basis functions                  I               17
Number of independent functions            I               17
Number of point charges in /Mol/           I                0
Number of translation vectors              I                0
Atomic numbers                             I   N=           3
           1           8           1
Nuclear charges                            R   N=           3
  1.00000000E+00  8.00000000E+00  1.00000000E+00
Current cartesian coordinates              R   N=           9
  1.48171536E+00 -9.30085408E-01  0.00000000E+00  3.21253443E-04  1.17106328E-01
  0.00000000E+00 -1.48203662E+00 -9.30217689E-01  0.00000000E+00
Force Field                                I                0
Int Atom Types                             I   N=           3
           0           0           0
MM charges                                 R   N=           3
  0.00000000E+00  0.00000000E+00  0.00000000E+00
Integer atomic weights                     I   N=           3
           1          16           1
Real atomic weights                        R   N=           3
  1.00782504E+00  1.59949146E+01  1.00782504E+00
Atom fragment info                         I   N=           3
           0           0           0
Atom residue num                           I   N=           3
           0           0           0
Nuclear spins                              I   N=           3
           1           0           1
Nuclear ZEff                               R   N=           3
 -1.00000000E+00 -5.60000000E+00 -1.00000000E+00
Nuclear ZNuc                               R   N=           3
  1.00000000E+00  8.00000000E+00  1.00000000E+00
Nuclear QMom                               R   N=           3
  0.00000000E+00  0.00000000E+00  0.00000000E+00
Nuclear GFac                               R   N=           3
  2.79284600E+00  0.00000000E+00  2.79284600E+00
MicOpt                                     I   N=           3
          -1          -1          -1
Number of contracted shells                I                8
Number of primitive shells                 I               19
Pure/Cartesian d shells                    I                1
Pure/Cartesian f shells                    I                0
Highest angular momentum                   I                1
Largest degree of contraction              I                6
Shell types                                I   N=           8
           0           0           0          -1          -1          -1
           0           0
Number of primitives per shell             I   N=           8
           3           1           6           3           1           1
           3           1
Shell to atom map                          I   N=           8
           1           1           2           2           2           2
           3           3
Primitive exponents                        R   N=          19
  1.87311370E+01  2.82539436E+00  6.40121692E-01  1.61277759E-01  5.48467166E+03
  8.25234946E+02  1.88046958E+02  5.29645000E+01  1.68975704E+01  5.79963534E+00
  1.55396162E+01  3.59993359E+00  1.01376175E+00  2.70005823E-01  8.45000000E-02
  1.87311370E+01  2.82539436E+00  6.40121692E-01  1.61277759E-01
Contraction coefficients                   R   N=          19
  3.34946043E-02  2.34726953E-01  8.13757326E-01  1.00000000E+00  1.83107443E-03
  1.39501722E-02  6.84450781E-02  2.32714336E-01  4.70192898E-01  3.58520853E-01
 -1.10777550E-01 -1.48026263E-01  1.13076702E+00  1.00000000E+00  1.00000000E+00
  3.34946043E-02  2.34726953E-01  8.13757326E-01  1.00000000E+00
P(S=P) Contraction coefficients            R   N=          19
  0.00000000E+00  0.00000000E+00  0.00000000E+00  0.00000000E+00  0.00000000E+00
  0.00000000E+00  0.00000000E+00  0.00000000E+00  0.00000000E+00  0.00000000E+00
  7.08742682E-02  3.39752839E-01  7.27158577E-01  1.00000000E+00  1.00000000E+00
  0.00000000E+00  0.00000000E+00  0.00000000E+00  0.00000000E+00
Coordinates of each shell                  R   N=          24
  1.48171536E+00 -9.30085408E-01  0.00000000E+00  1.48171536E+00 -9.30085408E-01
  0.00000000E+00  3.21253443E-04  1.17106328E-01  0.00000000E+00  3.21253443E-04
  1.17106328E-01  0.00000000E+00  3.21253443E-04  1.17106328E-01  0.00000000E+00
  3.21253443E-04  1.17106328E-01  0.00000000E+00 -1.48203662E+00 -9.30217689E-01
  0.00000000E+00 -1.48203662E+00 -9.30217689E-01  0.00000000E+00
Constraint Structure                       R   N=           9
  1.48171536E+00 -9.30085408E-01  0.00000000E+00  3.21253443E-04  1.17106328E-01
  0.00000000E+00 -1.48203662E+00 -9.30217689E-01  0.00000000E+00
Num ILSW                                   I              100
ILSW                                       I   N=         100
           0           1           0           0           2           0
           0           0           0           0           0          -1
           0           0           0           0           2           0
           0           0           0           0           1           0
           1           1           0           0           0           0
           0           0      100000           0          -1           0
           0           0           0           0           0           0
           0           0           0           1           0           0
           0           0           1           0           0           0
           0           0           4          41           0           0
           0           0           0           0           0           0
           0           0           0           3           0           0
           0           0           0           0           0           0
           0           0           0           0           0           0
           0           0           0           0           0           0
           0           0           0           0           0           0
           0           0           0           0
Num RLSW                                   I               41
RLSW                                       R   N=          41
  1.00000000E+00  1.00000000E+00  1.00000000E+00  1.00000000E+00  1.00000000E+00
  0.00000000E+00  0.00000000E+00  1.00000000E+00  0.00000000E+00  0.00000000E+00
  0.00000000E+00  0.00000000E+00  1.00000000E+00  0.00000000E+00  0.00000000E+00
  0.00000000E+00  0.00000000E+00  1.00000000E+00  0.00000000E+00  0.00000000E+00
  0.00000000E+00  0.00000000E+00  1.00000000E+00  0.00000000E+00  0.00000000E+00
  0.00000000E+00  0.00000000E+00  1.00000000E+00  0.00000000E+00  0.00000000E+00
  0.00000000E+00  0.00000000E+00  1.00000000E+00  0.00000000E+00  0.00000000E+00
  0.00000000E+00  0.00000000E+00  0.00000000E+00  1.00000000E+00  1.00000000E+00
  0.00000000E+00
MxBond                                     I                2
NBond                                      I   N=           3
           1           2           1
IBond                                      I   N=           6
           2           0           1           3           2           0
RBond                                      R   N=           6
  1.00000000E+00  0.00000000E+00  1.00000000E+00  1.00000000E+00  1.00000000E+00
  0.00000000E+00
Virial Ratio                               R      2.000846969218442E+00
SCF Energy                                 R     -7.599263728325120E+01
Total Energy                               R     -7.599263728325120E+01
RMS Force                                  R      7.895077499137728E-03
RMS Density                                R      6.761318491722934E-09
Job Status                                 I                1
Nuclear derivative order                   I                2
External E-field                           R   N=          35
  0.00000000E+00  0.00000000E+00  0.00000000E+00  0.00000000E+00  0.00000000E+00
  0.00000000E+00  0.00000000E+00  0.00000000E+00  0.00000000E+00  0.00000000E+00
  0.00000000E+00  0.00000000E+00  0.00000000E+00  0.00000000E+00  0.00000000E+00
  0.00000000E+00  0.00000000E+00  0.00000000E+00  0.00000000E+00  0.00000000E+00
  0.00000000E+00  0.00000000E+00  0.00000000E+00  0.00000000E+00  0.00000000E+00
  0.00000000E+00  0.00000000E+00  0.00000000E+00  0.00000000E+00  0.00000000E+00
  0.00000000E+00  0.00000000E+00  0.00000000E+00  0.00000000E+00  0.00000000E+00
IOpCl                                      I                0
IROHF                                      I                0
Alpha Orbital Energies                     R   N=          17
 -2.05781628E+01 -1.36585368E+00 -7.33587079E-01 -5.65525055E-01 -5.11511897E-01
  1.43270849E-01  2.20001366E-01  2.51980484E-01  2.59703442E-01  3.54272401E-01
  3.70006551E-01  1.30504043E+00  1.35917024E+00  1.40264558E+00  1.41611623E+00
  1.44277286E+00  1.74816681E+00
Alpha MO coefficients                      R   N=         289
  6.26660145E-05  1.98844108E-03  9.95781138E-01  2.21113152E-02  4.11942102E-07
 -1.88040808E-03 -7.21857197E-16 -8.35794032E-03 -2.85244499E-07  1.42881371E-03
  1.12110400E-15  3.17719647E-04 -1.08432307E-06  4.91726270E-04 -4.45821661E-16
  6.40715381E-05  1.98379188E-03  1.41117290E-01 -4.00285044E-02 -2.13368760E-01
  4.73122154E-01  1.02502583E-04 -1.06336502E-01 -4.25829084E-16  4.85152986E-01
 -3.53812772E-08 -6.23804259E-02  2.56662251E-16  4.64739978E-02  3.01387767E-05
 -1.70133654E-02 -7.87067394E-17  1.40920306E-01 -3.99317421E-02  2.62710296E-01
  1.09036764E-01  5.85559804E-05 -1.11636428E-04  5.09005243E-01 -2.45211147E-04
  7.21717564E-15 -3.06783458E-04  2.68614342E-01 -6.67741656E-05  4.86468681E-15
 -1.79805948E-05  3.49891968E-03 -2.44270278E-05  1.80230085E-15 -2.62585037E-01
 -1.09067184E-01 -1.38479336E-01 -6.54567901E-02 -7.06794725E-02  1.77201917E-01
  1.87765651E-04  5.60750810E-01  9.57067851E-16  2.56835401E-01  1.53959100E-04
  3.82443263E-01  8.41457867E-16  2.29226111E-02  1.31158563E-06  6.19989227E-02
  1.12251507E-16 -1.38611087E-01 -6.56137838E-02 -2.83082128E-15 -3.43394216E-15
  1.07821708E-16 -3.86046178E-16 -2.61908875E-15 -7.93142700E-16  6.40466341E-01
 -1.72374726E-16 -1.24571099E-15 -7.30813459E-16  4.65068216E-01  1.39958833E-15
 -2.90913529E-15 -7.74765110E-16  8.12447462E-02  3.06063785E-15  2.13013861E-15
  5.55424307E-02 -3.41821347E-01  6.66207180E-02 -8.70485929E-02  1.36889593E-04
  1.76431895E-01  1.60186773E-16 -7.55596691E-01  3.12258290E-04  2.12967137E-01
 -2.20046188E-17  1.74937033E+00  2.96796638E-04 -7.42356660E-01 -3.75420828E-16
  5.56237727E-02 -3.40646602E-01  7.61183319E-03 -2.83203020E-01 -3.22945942E-05
  1.47003037E-05 -1.95489377E-01 -4.41997340E-05 -2.08490292E-15  5.21802906E-04
 -4.45160914E-01 -1.21421845E-04 -4.23275624E-15  5.70861056E-04  1.41681864E+00
 -5.59552501E-04  1.12951416E-14 -7.74209632E-03  2.81931513E-01  1.21167271E-15
  1.63038127E-14  4.60402479E-16 -5.65872779E-16  1.04675086E-15 -4.62282475E-16
 -2.07835497E-01 -6.27261742E-15  2.26886991E-15 -1.46309283E-15 -5.15411070E-01
 -2.35757621E-15 -1.88131058E-14  1.01101378E-14  1.23392319E+00 -2.59747968E-16
 -3.60657632E-15  3.52749322E-02  5.46834339E-01  5.43314819E-02 -6.90382066E-02
  3.65116368E-05 -1.08126022E-01  1.71291162E-15 -7.11729148E-01  1.38297351E-05
 -3.14752256E-01  3.42206124E-15  7.49545253E-02  8.01464457E-04  1.31118696E+00
 -8.91819629E-15  3.53354373E-02  5.47816331E-01 -1.06153339E-01 -2.06777500E+00
  2.59418517E-04 -3.55017768E-04  2.77368744E-01  1.36864613E-03 -6.10611916E-16
 -4.31073731E-03  7.69892799E-01  4.06205294E-03 -2.92620645E-15 -1.96601313E-02
  1.28931249E+00  5.17607141E-03  5.79383471E-15  1.07789628E-01  2.09685630E+00
 -1.28670132E-01 -2.46109678E+00 -4.92106109E-02  5.89490603E-02  1.70644894E-03
 -2.21602703E-01 -2.78316407E-16  8.97092973E-01  5.18754705E-03 -6.83384110E-01
 -6.29063083E-16  3.16080365E+00  7.83460075E-03 -8.95076711E-01  1.71263037E-15
 -1.27397897E-01 -2.43326917E+00  9.17491547E-01 -1.65523148E+00 -3.22449174E-04
  3.30634101E-03 -6.73853244E-01 -3.68189785E-03 -7.69601591E-15 -5.57091324E-03
  2.95126500E-01  3.99786159E-03  1.17957034E-14 -9.65694233E-03  8.00671907E-01
  2.70670639E-03 -6.22763939E-15 -9.26227668E-01  1.67635899E+00 -7.18775999E-01
  1.77398440E+00 -5.25427289E-02  5.51570141E-01  3.68631809E-03 -7.60560892E-01
 -1.40913134E-15 -9.26091186E-01 -1.17823866E-03  8.40594693E-01  1.73357569E-15
 -1.64716002E+00 -4.78537983E-03  3.85839468E-01 -4.86620270E-16 -7.07819621E-01
  1.75419766E+00 -4.53376812E-14  4.16191073E-14 -1.27276876E-15  4.97513566E-15
 -1.56746226E-14  1.99325878E-14 -9.90480502E-01  1.98349427E-16  4.61602725E-14
 -4.15098444E-14  1.43164269E+00 -1.72903530E-14 -2.94954663E-14  2.45198215E-14
 -6.48614754E-01  2.94397914E-15 -1.02382468E-15 -6.12378190E-01  2.94450849E-01
 -2.41357354E-04  2.54041749E-04 -7.95786713E-01  3.58291399E-03  2.72235215E-14
  1.72994213E-03  1.74605959E+00 -8.07453463E-03 -3.94836297E-14 -3.17095596E-03
 -7.95168273E-01  4.31480843E-03  1.75621238E-14  6.04222231E-01 -2.88216720E-01
  7.78614891E-01 -7.80492005E-01  5.02575682E-02 -2.00991535E-01 -4.78657116E-03
 -6.66231283E-01 -2.84847909E-14  5.76392240E-03  9.19263895E-03  1.42621579E+00
  4.11951182E-14  7.02587837E-01 -3.81502492E-03 -8.67513007E-01 -1.87723675E-14
  7.83700037E-01 -7.81858031E-01 -5.04628401E-01  1.95255968E-02  5.38637216E-02
 -1.68035272E+00  3.42044183E-04 -1.20198890E-01  3.77125983E-17  2.64820738E+00
 -4.64858296E-04 -2.01712513E-01 -2.08051292E-17 -9.00435246E-01  6.70849368E-04
 -2.52515081E-02  3.16522825E-16 -5.05388070E-01  2.12554604E-02
Total SCF Density                          R   N=         153
  2.16214639E-01  6.41218080E-02  3.55596848E-02 -4.04891795E-02  3.03074412E-02
  2.08420379E+00  8.43979397E-02 -6.10112926E-02 -1.82912002E-01  5.11468029E-01
  2.67418762E-01  1.10967784E-01 -9.85304194E-06  4.99085147E-05  5.18172766E-01
 -1.85445712E-01 -6.49578662E-02 -3.76343465E-02  9.80288256E-02 -6.08491182E-05
  6.51505038E-01 -2.19381211E-16 -2.91884711E-15 -1.25223885E-15 -5.91782821E-16
  3.99255561E-15  1.47128398E-16  8.20394269E-01  6.56319194E-02 -7.25632786E-02
 -2.59984357E-01  5.49727160E-01 -1.16407062E-04  1.84893959E-01 -1.34728854E-16
  6.02815584E-01  1.41092856E-01  5.85575237E-02  9.14147271E-06 -5.45668997E-06
  2.73452274E-01  4.09395157E-05  2.28189699E-15 -8.57581415E-05  1.44307377E-01
 -1.23561797E-01 -4.50819060E-02 -2.45961444E-02  7.65754366E-02  6.28554833E-05
  4.42172032E-01 -1.53974382E-16  1.35897995E-01  8.18918430E-05  3.00312427E-01
 -2.37512966E-16 -2.25942267E-15  2.10513204E-15  2.30497488E-16  2.51656185E-15
  1.44778291E-16  5.95721078E-01  4.99216188E-16  1.45502656E-15 -6.56038127E-17
  4.32576892E-01  6.75854574E-03 -6.72410789E-03 -2.24397583E-02  5.21136715E-02
 -1.68604615E-07  1.58227947E-02  1.79635723E-15  5.68633737E-02 -2.60487200E-06
  1.17359712E-02  1.36477862E-15  5.37075968E-03  1.84654726E-03  7.60432923E-04
 -1.47964827E-05  2.81543114E-05  3.56194359E-03 -6.65062902E-06 -3.67592343E-15
  2.77888623E-05  1.87972041E-03 -3.22729875E-06 -2.67183518E-15  2.73495448E-06
  2.44867003E-05 -2.19856722E-02 -6.75783315E-03 -5.24560339E-04  5.89560662E-03
 -5.07185695E-06  7.31483385E-02 -8.60320529E-16  1.53306617E-02  5.96862004E-06
  4.95461511E-02 -6.24166778E-16  1.26130952E-03 -1.03489304E-06  8.26712682E-03
  4.33628597E-16 -1.75112614E-16 -8.52431272E-16 -1.17539699E-16  1.40921241E-15
  1.45444551E-17  1.04069051E-01 -4.03719102E-17  7.65867589E-16 -2.45850097E-17
  7.55686984E-02  2.24900854E-16 -4.60095189E-16 -1.09820606E-16  1.32014176E-02
 -5.98054515E-02 -5.03981752E-02 -4.04452141E-02  8.42821982E-02 -2.67337484E-01
 -1.85293967E-01 -2.55202466E-16  6.56953886E-02 -1.41110905E-01 -1.23567839E-01
  1.31233571E-16  6.75308748E-03 -1.82939731E-03 -2.19696421E-02 -5.02551469E-16
  2.16044943E-01 -5.04037074E-02 -1.19902251E-02  3.02535398E-02 -6.09268799E-02
 -1.11064361E-01 -6.50475330E-02  1.05980060E-15 -7.24161336E-02 -5.86142214E-02
 -4.51849464E-02  7.93691809E-16 -6.71447112E-03 -7.65818035E-04 -6.76994184E-03
 -5.72321462E-17  6.42142841E-02  3.55985972E-02
Mulliken Charges                           R   N=           3
  4.55372307E-01 -9.10701748E-01  4.55329441E-01
ONIOM Charges                              I   N=          16
           0           0           0           0           0           0
           0           0           0           0           0           0
           0           0           0           0
ONIOM Multiplicities                       I   N=          16
           1           0           0           0           0           0
           0           0           0           0           0           0
           0           0           0           0
Atom Layers                                I   N=           3
           1           1           1
Atom Modifiers                             I   N=           3
           0           0           0
Force Field                                I                0
Int Atom Modified Types                    I   N=           3
           0           0           0
Link Atoms                                 I   N=           3
           0           0           0
Atom Modified MM Charges                   R   N=           3
  0.00000000E+00  0.00000000E+00  0.00000000E+00
Link Distances                             R   N=          12
  0.00000000E+00  0.00000000E+00  0.00000000E+00  0.00000000E+00  0.00000000E+00
  0.00000000E+00  0.00000000E+00  0.00000000E+00  0.00000000E+00  0.00000000E+00
  0.00000000E+00  0.00000000E+00
Cartesian Gradient                         R   N=           9
  5.00847002E-03 -9.05060928E-03  4.31810584E-16  3.96209196E-04  1.83757132E-02
 -1.98417463E-16 -5.40467921E-03 -9.32510393E-03 -2.33393121E-16
Cartesian Force Constants                  R   N=          45
  4.08480492E-01 -2.24501606E-01  2.02337249E-01  3.76818060E-17 -1.46116969E-16
  6.01251981E-03 -3.76030486E-01  2.59695800E-01 -2.49823670E-16  7.51064652E-01
  1.89324029E-01 -2.17702491E-01  2.49886061E-16 -1.00606382E-03  4.34836810E-01
 -2.41973759E-16  1.89634039E-17 -8.64241258E-03  8.54933343E-16  2.71162706E-16
  1.75464875E-02 -3.24500058E-02 -3.51941933E-02  2.12141864E-16 -3.75034166E-01
 -1.88317966E-01 -6.12959584E-16  4.07484172E-01  3.51775770E-02  1.53652417E-02
 -1.03769092E-16 -2.58689736E-01 -2.17134319E-01 -2.90126110E-16  2.23512159E-01
  2.01769078E-01  2.04291953E-16  1.27153565E-16  2.62989277E-03 -6.05109672E-16
 -5.21048768E-16 -8.90407491E-03  4.00817720E-16  3.93895203E-16  6.27418214E-03
Dipole Moment                              R   N=           3
 -2.68962651E-04 -1.04341575E+00 -1.18413458E-15
Dipole Derivatives                         R   N=          27
  2.98462087E-01  1.01166666E-01  1.56506362E-15  1.40984301E-01  2.29120915E-01
  5.18868475E-16  5.03419405E-15 -3.92666139E-15  4.98236867E-01 -5.96897440E-01
  1.84002974E-05 -2.62284508E-15  3.15539370E-04 -4.58252278E-01 -3.76037817E-16
 -9.58226432E-15  5.23436317E-16 -9.96331260E-01  2.98435353E-01 -1.01185066E-01
  1.05778146E-15 -1.41299840E-01  2.29131362E-01 -1.42830659E-16  4.54807028E-15
  3.40322507E-15  4.98094393E-01
Polarizability                             R   N=           6
  7.20105640E+00  2.82950815E-03  5.01443800E+00 -2.60609279E-14 -3.56018094E-15
  3.87255431E+00
Polarizability Derivatives                 R   N=          54
  5.31225867E+00 -2.58317663E+00  1.58803074E+00  1.00355019E-14 -2.89365698E-17
  4.61068829E-02 -2.64296310E+00  2.56207875E+00 -2.95278535E+00  4.24143256E-15
  8.10499462E-15 -1.83058067E-01  6.69613132E-15  8.66786144E-15 -3.57321746E-15
  1.12178985E+00 -5.44400139E-01  1.79555716E-14  6.69448864E-03  5.16798387E+00
  3.16510222E-05  5.37773093E-15  1.69711389E-15 -1.00860505E-04  5.28559418E+00
  3.68606317E-03  5.90763259E+00 -5.34490544E-15  2.60361387E-15  3.65930143E-01
 -2.36748908E-15 -1.43888610E-14  3.13118928E-15  2.55976149E-03  1.09035504E+00
 -6.79451801E-15 -5.31895316E+00 -2.58480724E+00 -1.58806239E+00 -1.25369157E-14
 -1.66817732E-15 -4.60060224E-02 -2.64263108E+00 -2.56576482E+00 -2.95484725E+00
  1.10347288E-15 -7.83229139E-15 -1.82872076E-01 -4.32864224E-15  5.72099952E-15
  4.42028182E-16 -1.12434961E+00 -5.45954902E-01 -5.40841943E-15
HyperPolarizability                        R   N=          10
 -2.48232749E-02 -1.65994249E+01 -6.66896534E-03 -8.61539871E+00  6.03264496E-15
  8.15313275E-14  3.08814101E-14  7.28314843E-03 -1.45986823E+00  2.30955870E-13
QEq coupling tensors                       R   N=          18
 -3.02903885E-01  3.48776815E-01  8.79473140E-03 -6.08911163E-16  6.99278435E-16
  2.94109153E-01 -1.74024463E+00 -5.55725109E-04 -9.98732262E-02  4.34226729E-14
  4.35424200E-16  1.84011786E+00 -3.02288438E-01 -3.47641149E-01  8.98135817E-03
 -9.09874127E-16 -7.98701292E-16  2.93307080E-01
