water_0                                                                 
Freq      UHF                                                         3-21G               
Number of atoms                            I                3
Info1-9                                    I   N=           9
          13          10           0           0           0         100
           6           1           2
Charge                                     I                0
Multiplicity                               I                1
Number of electrons                        I               10
Number of alpha electrons                  I                5
Number of beta electrons                   I                5
Number of basis functions                  I               13
Number of independent functions            I               13
Number of point charges in /Mol/           I                0
Number of translation vectors              I                0
Atomic numbers                             I   N=           3
           1           8           1
Nuclear charges                            R   N=           3
  1.00000000E+00  8.00000000E+00  1.00000000E+00
Current cartesian coordinates              R   N=           9
  0.00000000E+00  2.79913794E+00 -1.58342420E+00  0.00000000E+00  0.00000000E+00
  3.95856051E-01 -3.42795532E-16 -2.79913794E+00 -1.58342420E+00
Force Field                                I                0
Int Atom Types                             I   N=           3
           0           0           0
MM charges                                 R   N=           3
  0.00000000E+00  0.00000000E+00  0.00000000E+00
Integer atomic weights                     I   N=           3
           1          16           1
Real atomic weights                        R   N=           3
  1.00782504E+00  1.59949146E+01  1.00782504E+00
Atom fragment info                         I   N=           3
           0           0           0
Atom residue num                           I   N=           3
           0           0           0
Nuclear spins                              I   N=           3
           1           0           1
Nuclear ZEff                               R   N=           3
 -1.00000000E+00 -5.60000000E+00 -1.00000000E+00
Nuclear ZNuc                               R   N=           3
  1.00000000E+00  8.00000000E+00  1.00000000E+00
Nuclear QMom                               R   N=           3
  0.00000000E+00  0.00000000E+00  0.00000000E+00
Nuclear GFac                               R   N=           3
  2.79284600E+00  0.00000000E+00  2.79284600E+00
MicOpt                                     I   N=           3
          -1          -1          -1
Number of contracted shells                I                7
Number of primitive shells                 I               12
Pure/Cartesian d shells                    I                1
Pure/Cartesian f shells                    I                0
Highest angular momentum                   I                1
Largest degree of contraction              I                3
Shell types                                I   N=           7
           0           0           0          -1          -1           0
           0
Number of primitives per shell             I   N=           7
           2           1           3           2           1           2
           1
Shell to atom map                          I   N=           7
           1           1           2           2           2           3
           3
Primitive exponents                        R   N=          12
  5.44717800E+00  8.24547240E-01  1.83191580E-01  3.22037000E+02  4.84308000E+01
  1.04206000E+01  7.40294000E+00  1.57620000E+00  3.73684000E-01  5.44717800E+00
  8.24547240E-01  1.83191580E-01
Contraction coefficients                   R   N=          12
  1.56284979E-01  9.04690877E-01  1.00000000E+00  5.92393934E-02  3.51499961E-01
  7.07657921E-01 -4.04453583E-01  1.22156176E+00  1.00000000E+00  1.56284979E-01
  9.04690877E-01  1.00000000E+00
P(S=P) Contraction coefficients            R   N=          12
  0.00000000E+00  0.00000000E+00  0.00000000E+00  0.00000000E+00  0.00000000E+00
  0.00000000E+00  2.44586107E-01  8.53955373E-01  1.00000000E+00  0.00000000E+00
  0.00000000E+00  0.00000000E+00
Coordinates of each shell                  R   N=          21
  0.00000000E+00  2.79913794E+00 -1.58342420E+00  0.00000000E+00  2.79913794E+00
 -1.58342420E+00  0.00000000E+00  7.44853178E-49  3.95856051E-01  0.00000000E+00
  7.44853178E-49  3.95856051E-01  0.00000000E+00  7.44853178E-49  3.95856051E-01
 -3.42795532E-16 -2.79913794E+00 -1.58342420E+00 -3.42795532E-16 -2.79913794E+00
 -1.58342420E+00
Constraint Structure                       R   N=           9
  0.00000000E+00  2.79913794E+00 -1.58342420E+00  0.00000000E+00  7.44853178E-49
  3.95856051E-01 -3.42795532E-16 -2.79913794E+00 -1.58342420E+00
Num ILSW                                   I              100
ILSW                                       I   N=         100
           1           1           0           0           2           0
           0           0           0           0           0          -1
           0           0           0           0           2           0
           0           0           0           0           1           0
           1           0           0           0           0           0
           0           0      100000           0          -1           0
           0           0           0           0           0           0
           0           0           0           1           0           0
           0           0           1           0           0           0
           0           0           4          41           0           0
           0           0           0           0           0           0
           0           0           0           3           0           0
           0           0           0           0           0           0
           0           0           0           0           0           0
           0           0           0           0           0           0
           0           0           0           0           0           0
           0           0           0           0
Num RLSW                                   I               41
RLSW                                       R   N=          41
  1.00000000E+00  1.00000000E+00  1.00000000E+00  1.00000000E+00  1.00000000E+00
  0.00000000E+00  0.00000000E+00  1.00000000E+00  0.00000000E+00  0.00000000E+00
  0.00000000E+00  0.00000000E+00  1.00000000E+00  0.00000000E+00  0.00000000E+00
  0.00000000E+00  0.00000000E+00  1.00000000E+00  0.00000000E+00  0.00000000E+00
  0.00000000E+00  0.00000000E+00  1.00000000E+00  0.00000000E+00  0.00000000E+00
  0.00000000E+00  0.00000000E+00  1.00000000E+00  0.00000000E+00  0.00000000E+00
  0.00000000E+00  0.00000000E+00  1.00000000E+00  0.00000000E+00  0.00000000E+00
  0.00000000E+00  0.00000000E+00  0.00000000E+00  1.00000000E+00  1.00000000E+00
  0.00000000E+00
MxBond                                     I                1
NBond                                      I   N=           3
           0           0           0
IBond                                      I   N=           3
           0           0           0
RBond                                      R   N=           3
  0.00000000E+00  0.00000000E+00  0.00000000E+00
Virial Ratio                               R      2.012199596772522E+00
SCF Energy                                 R     -7.523235887076824E+01
Total Energy                               R     -7.523235887076824E+01
S**2                                       R     -3.552713678800501E-15
S**2 after annihilation                    R      3.907985046680537E-14
RMS Force                                  R      6.534835908906932E-02
RMS Density                                R      6.733054615604246E-09
External E-field                           R   N=          35
  0.00000000E+00  0.00000000E+00  0.00000000E+00  0.00000000E+00  0.00000000E+00
  0.00000000E+00  0.00000000E+00  0.00000000E+00  0.00000000E+00  0.00000000E+00
  0.00000000E+00  0.00000000E+00  0.00000000E+00  0.00000000E+00  0.00000000E+00
  0.00000000E+00  0.00000000E+00  0.00000000E+00  0.00000000E+00  0.00000000E+00
  0.00000000E+00  0.00000000E+00  0.00000000E+00  0.00000000E+00  0.00000000E+00
  0.00000000E+00  0.00000000E+00  0.00000000E+00  0.00000000E+00  0.00000000E+00
  0.00000000E+00  0.00000000E+00  0.00000000E+00  0.00000000E+00  0.00000000E+00
IOpCl                                      I                1
IROHF                                      I                0
Alpha Orbital Energies                     R   N=          13
 -2.05462101E+01 -1.18809142E+00 -4.99640069E-01 -4.34188816E-01 -4.21193533E-01
  7.99931269E-03  6.11248439E-02  1.11833984E+00  1.17991353E+00  1.75511692E+00
  1.81623375E+00  1.86655375E+00  2.64617279E+00
Beta Orbital Energies                      R   N=          13
 -2.05462101E+01 -1.18809142E+00 -4.99640069E-01 -4.34188816E-01 -4.21193533E-01
  7.99931269E-03  6.11248439E-02  1.11833984E+00  1.17991353E+00  1.75511692E+00
  1.81623375E+00  1.86655375E+00  2.64617279E+00
Alpha MO coefficients                      R   N=         169
 -9.99767768E-04  3.25348928E-03  9.83077621E-01  9.06292992E-02  0.00000000E+00
  0.00000000E+00 -1.30512551E-03 -2.59314637E-02  0.00000000E+00  0.00000000E+00
  1.45039639E-03 -9.99767768E-04  3.25348928E-03  2.47796267E-02  3.44854910E-02
 -2.50216933E-01  2.57389142E-01  0.00000000E+00  0.00000000E+00  1.59463512E-03
  7.95415092E-01  0.00000000E+00  0.00000000E+00 -7.65914969E-03  2.47796267E-02
  3.44854910E-02  0.00000000E+00  0.00000000E+00  0.00000000E+00  0.00000000E+00
  5.52968018E-01  0.00000000E+00  0.00000000E+00  0.00000000E+00  6.01861426E-01
  0.00000000E+00  0.00000000E+00  0.00000000E+00  0.00000000E+00  1.45678695E-01
  3.41812568E-01  0.00000000E+00  0.00000000E+00  0.00000000E+00  3.40885085E-01
  0.00000000E+00  0.00000000E+00  0.00000000E+00  4.13796528E-01  0.00000000E+00
 -1.45678695E-01 -3.41812568E-01 -1.28425218E-01 -3.10996483E-01 -3.53473359E-02
  4.55078149E-02  0.00000000E+00  0.00000000E+00  3.84694137E-01  1.50852508E-01
  0.00000000E+00  0.00000000E+00  4.64175704E-01 -1.28425218E-01 -3.10996483E-01
  1.55883607E-01  4.87178582E-01  4.47569679E-02 -3.98671057E-02  0.00000000E+00
  0.00000000E+00  3.37632433E-01 -2.23580934E-01  0.00000000E+00  0.00000000E+00
  4.67976894E-01  1.55883607E-01  4.87178582E-01 -1.54994527E-01 -4.83287853E-01
  0.00000000E+00  0.00000000E+00  0.00000000E+00  3.75660252E-01  0.00000000E+00
  0.00000000E+00  0.00000000E+00  5.42454660E-01  0.00000000E+00  1.54994527E-01
  4.83287853E-01  9.07527510E-01 -7.69065124E-01 -3.00177378E-02  4.60144455E-02
  0.00000000E+00  0.00000000E+00  3.03144945E-02  1.92532741E-01  0.00000000E+00
  0.00000000E+00 -1.32610415E-01  9.07527510E-01 -7.69065124E-01  9.25439584E-01
 -8.36461919E-01  0.00000000E+00  0.00000000E+00  0.00000000E+00 -1.03453220E-02
  0.00000000E+00  0.00000000E+00  0.00000000E+00  1.86712931E-01  0.00000000E+00
 -9.25439584E-01  8.36461919E-01  0.00000000E+00  0.00000000E+00  0.00000000E+00
  0.00000000E+00  1.01260724E+00  0.00000000E+00  0.00000000E+00  0.00000000E+00
 -9.84332200E-01  0.00000000E+00  0.00000000E+00  0.00000000E+00  0.00000000E+00
 -2.41887524E-02 -9.29434397E-02 -8.88602566E-03  5.86959695E-02  0.00000000E+00
  0.00000000E+00  1.03718652E+00 -1.63871105E-02  0.00000000E+00  0.00000000E+00
 -9.87755326E-01 -2.41887524E-02 -9.29434397E-02 -5.18033620E-03  1.87965307E-01
  0.00000000E+00  0.00000000E+00  0.00000000E+00  1.04840537E+00  0.00000000E+00
  0.00000000E+00  0.00000000E+00 -1.03306070E+00  0.00000000E+00  5.18033620E-03
 -1.87965307E-01 -9.62706062E-02  2.32710883E-01 -1.22348963E-01  1.49782876E+00
  0.00000000E+00  0.00000000E+00 -6.51748047E-02 -1.35603283E+00  0.00000000E+00
  0.00000000E+00  1.07503538E-01 -9.62706062E-02  2.32710883E-01
Beta MO coefficients                       R   N=         169
 -9.99767768E-04  3.25348928E-03  9.83077621E-01  9.06292992E-02  0.00000000E+00
  0.00000000E+00 -1.30512551E-03 -2.59314637E-02  0.00000000E+00  0.00000000E+00
  1.45039639E-03 -9.99767768E-04  3.25348928E-03  2.47796267E-02  3.44854910E-02
 -2.50216933E-01  2.57389142E-01  0.00000000E+00  0.00000000E+00  1.59463512E-03
  7.95415092E-01  0.00000000E+00  0.00000000E+00 -7.65914969E-03  2.47796267E-02
  3.44854910E-02  0.00000000E+00  0.00000000E+00  0.00000000E+00  0.00000000E+00
  5.52968018E-01  0.00000000E+00  0.00000000E+00  0.00000000E+00  6.01861426E-01
  0.00000000E+00  0.00000000E+00  0.00000000E+00  0.00000000E+00  1.45678695E-01
  3.41812568E-01  0.00000000E+00  0.00000000E+00  0.00000000E+00  3.40885085E-01
  0.00000000E+00  0.00000000E+00  0.00000000E+00  4.13796528E-01  0.00000000E+00
 -1.45678695E-01 -3.41812568E-01 -1.28425218E-01 -3.10996483E-01 -3.53473359E-02
  4.55078149E-02  0.00000000E+00  0.00000000E+00  3.84694137E-01  1.50852508E-01
  0.00000000E+00  0.00000000E+00  4.64175704E-01 -1.28425218E-01 -3.10996483E-01
  1.55883607E-01  4.87178582E-01  4.47569679E-02 -3.98671057E-02  0.00000000E+00
  0.00000000E+00  3.37632433E-01 -2.23580934E-01  0.00000000E+00  0.00000000E+00
  4.67976894E-01  1.55883607E-01  4.87178582E-01 -1.54994527E-01 -4.83287853E-01
  0.00000000E+00  0.00000000E+00  0.00000000E+00  3.75660252E-01  0.00000000E+00
  0.00000000E+00  0.00000000E+00  5.42454660E-01  0.00000000E+00  1.54994527E-01
  4.83287853E-01  9.07527510E-01 -7.69065124E-01 -3.00177378E-02  4.60144455E-02
  0.00000000E+00  0.00000000E+00  3.03144945E-02  1.92532741E-01  0.00000000E+00
  0.00000000E+00 -1.32610415E-01  9.07527510E-01 -7.69065124E-01  9.25439584E-01
 -8.36461919E-01  0.00000000E+00  0.00000000E+00  0.00000000E+00 -1.03453220E-02
  0.00000000E+00  0.00000000E+00  0.00000000E+00  1.86712931E-01  0.00000000E+00
 -9.25439584E-01  8.36461919E-01  0.00000000E+00  0.00000000E+00  0.00000000E+00
  0.00000000E+00  1.01260724E+00  0.00000000E+00  0.00000000E+00  0.00000000E+00
 -9.84332200E-01  0.00000000E+00  0.00000000E+00  0.00000000E+00  0.00000000E+00
 -2.41887524E-02 -9.29434397E-02 -8.88602566E-03  5.86959695E-02  0.00000000E+00
  0.00000000E+00  1.03718652E+00 -1.63871105E-02  0.00000000E+00  0.00000000E+00
 -9.87755326E-01 -2.41887524E-02 -9.29434397E-02 -5.18033620E-03  1.87965307E-01
  0.00000000E+00  0.00000000E+00  0.00000000E+00  1.04840537E+00  0.00000000E+00
  0.00000000E+00  0.00000000E+00 -1.03306070E+00  0.00000000E+00  5.18033620E-03
 -1.87965307E-01 -9.62706062E-02  2.32710883E-01 -1.22348963E-01  1.49782876E+00
  0.00000000E+00  0.00000000E+00 -6.51748047E-02 -1.35603283E+00  0.00000000E+00
  0.00000000E+00  1.07503538E-01 -9.62706062E-02  2.32710883E-01
Total SCF Density                          R   N=          91
  7.66606965E-02  1.81171770E-01  4.29508956E-01 -5.28728438E-03  1.11249517E-02
  2.06059911E+00  8.86095088E-04 -9.96343601E-03  4.61678684E-02  1.53067603E-01
 -1.15555797E-33 -3.08148791E-33  0.00000000E+00  0.00000000E+00  6.11547258E-01
  9.93193887E-02  2.33037613E-01  0.00000000E+00  0.00000000E+00  7.70371978E-33
  2.32405282E-01 -9.87272184E-02 -2.39175556E-01 -3.05599145E-02  3.55974975E-02
  0.00000000E+00  5.06307423E-49  2.95987651E-01  7.25496611E-04 -3.91373741E-02
 -4.59702401E-01  4.18492051E-01  0.00000000E+00  2.02990932E-49  1.18668632E-01
  1.31222818E+00 -1.54074396E-33 -3.08148791E-33  0.00000000E+00  0.00000000E+00
  6.65620239E-01  6.16297582E-33 -2.95492455E-65  0.00000000E+00  7.24474351E-01
  1.20562676E-01  2.82881708E-01  0.00000000E+00  0.00000000E+00  6.16297582E-33
  2.82114129E-01 -5.30833381E-49  0.00000000E+00  4.62223187E-33  3.42455133E-01
 -1.19606214E-01 -2.89232844E-01 -2.61301467E-02  3.85673770E-02  0.00000000E+00
  6.10849694E-49  3.57103131E-01  1.27784510E-01  0.00000000E+00  7.37323329E-49
  4.31039701E-01 -8.22843217E-03 -1.80074657E-02 -5.28728438E-03  8.86095088E-04
  1.15555797E-33 -9.93193887E-02 -9.87272184E-02  7.25496611E-04  1.54074396E-33
 -1.20562676E-01 -1.19606214E-01  7.66606965E-02 -1.80074657E-02 -3.78343704E-02
  1.11249517E-02 -9.96343601E-03  3.08148791E-33 -2.33037613E-01 -2.39175556E-01
 -3.91373741E-02  3.08148791E-33 -2.82881708E-01 -2.89232844E-01  1.81171770E-01
  4.29508956E-01
Spin SCF Density                           R   N=          91
  0.00000000E+00  0.00000000E+00  0.00000000E+00  0.00000000E+00  0.00000000E+00
  0.00000000E+00  0.00000000E+00  0.00000000E+00  0.00000000E+00  0.00000000E+00
  0.00000000E+00  0.00000000E+00  0.00000000E+00  0.00000000E+00  0.00000000E+00
  0.00000000E+00  0.00000000E+00  0.00000000E+00  0.00000000E+00  0.00000000E+00
  0.00000000E+00  0.00000000E+00  0.00000000E+00  0.00000000E+00  0.00000000E+00
  0.00000000E+00  0.00000000E+00  0.00000000E+00  0.00000000E+00  0.00000000E+00
  0.00000000E+00  0.00000000E+00  0.00000000E+00  0.00000000E+00  0.00000000E+00
  0.00000000E+00  0.00000000E+00  0.00000000E+00  0.00000000E+00  0.00000000E+00
  0.00000000E+00  0.00000000E+00  0.00000000E+00  0.00000000E+00  0.00000000E+00
  0.00000000E+00  0.00000000E+00  0.00000000E+00  0.00000000E+00  0.00000000E+00
  0.00000000E+00  0.00000000E+00  0.00000000E+00  0.00000000E+00  0.00000000E+00
  0.00000000E+00  0.00000000E+00  0.00000000E+00  0.00000000E+00  0.00000000E+00
  0.00000000E+00  0.00000000E+00  0.00000000E+00  0.00000000E+00  0.00000000E+00
  0.00000000E+00  0.00000000E+00  0.00000000E+00  0.00000000E+00  0.00000000E+00
  0.00000000E+00  0.00000000E+00  0.00000000E+00  0.00000000E+00  0.00000000E+00
  0.00000000E+00  0.00000000E+00  0.00000000E+00  0.00000000E+00  0.00000000E+00
  0.00000000E+00  0.00000000E+00  0.00000000E+00  0.00000000E+00  0.00000000E+00
  0.00000000E+00  0.00000000E+00  0.00000000E+00  0.00000000E+00  0.00000000E+00
  0.00000000E+00
Mulliken Charges                           R   N=           3
  1.15019302E-01 -2.30038605E-01  1.15019302E-01
ONIOM Charges                              I   N=          16
           0           0           0           0           0           0
           0           0           0           0           0           0
           0           0           0           0
ONIOM Multiplicities                       I   N=          16
           1           0           0           0           0           0
           0           0           0           0           0           0
           0           0           0           0
Atom Layers                                I   N=           3
           1           1           1
Atom Modifiers                             I   N=           3
           0           0           0
Force Field                                I                0
Int Atom Modified Types                    I   N=           3
           0           0           0
Link Atoms                                 I   N=           3
           0           0           0
Atom Modified MM Charges                   R   N=           3
  0.00000000E+00  0.00000000E+00  0.00000000E+00
Link Distances                             R   N=          12
  0.00000000E+00  0.00000000E+00  0.00000000E+00  0.00000000E+00  0.00000000E+00
  0.00000000E+00  0.00000000E+00  0.00000000E+00  0.00000000E+00  0.00000000E+00
  0.00000000E+00  0.00000000E+00
Cartesian Gradient                         R   N=           9
  1.25447800E-17  9.54806810E-02 -5.80237759E-02  2.57560310E-16  1.31838984E-16
  1.16047552E-01 -2.70105090E-16 -9.54806810E-02 -5.80237759E-02
Cartesian Force Constants                  R   N=          45
  3.17131718E-02 -4.18734326E-18 -1.49385417E-02 -1.38547897E-18  3.33228038E-02
  1.90370396E-02 -2.93155973E-02 -3.55771944E-18  7.51471617E-19  5.86311945E-02
 -3.12557821E-18  1.40893187E-02 -3.06917656E-02 -2.01776317E-16 -2.81786371E-02
  6.43451786E-22 -3.59538416E-02 -2.56655894E-02 -1.43495471E-16 -3.73661267E-10
  5.13311785E-02 -2.39757454E-03  3.09439885E-18  3.17532757E-18 -2.93155973E-02
  2.27339208E-16  1.46365044E-16  3.17131718E-02  1.03805567E-17  8.49222729E-04
 -2.63103801E-03  2.20054701E-16  1.40893188E-02  3.59538420E-02 -2.48221907E-16
 -1.49385417E-02  2.74615253E-18  2.63103801E-03  6.62854966E-03  1.46795989E-16
  3.06917656E-02 -2.56655891E-02 -1.54953678E-16 -3.33228038E-02  1.90370396E-02
Dipole Moment                              R   N=           3
 -5.45180484E-17  4.44089210E-16 -6.56338762E-01
Dipole Derivatives                         R   N=          27
  1.65802391E-01  1.17481167E-17 -3.22851027E-17 -6.08563723E-18 -8.25157956E-02
  1.04965626E-01  3.98107917E-19  1.75586665E-01  3.90580823E-02 -3.31604783E-01
 -4.60204341E-16  1.96108314E-16  3.40193136E-17  1.65031596E-01 -1.72323760E-10
  2.33424182E-17 -4.01038424E-09 -7.81161640E-02  1.65802391E-01  2.89840369E-16
 -3.53012470E-17  2.88933165E-17 -8.25157956E-02 -1.04965626E-01  1.86197240E-17
 -1.75586665E-01  3.90580823E-02
Polarizability                             R   N=           6
  3.43920352E-01  3.97031377E-15  6.45757514E+01  1.00510320E-15 -1.16009632E-16
  1.25998840E+01
Polarizability Derivatives                 R   N=          54
  9.13214219E-16  1.14735023E+01  1.39249730E-15 -3.09606579E+00  6.84692176E-16
 -5.45732730E-16 -1.37560207E-02  1.13767204E-15  3.37407688E+01 -2.01814578E-16
 -4.29391389E+00 -1.26937842E-01  9.27763881E-03 -4.93042493E-16 -1.35868817E+01
  6.21434517E-16  1.23205048E+01 -5.31771725E+00  1.01828365E-15 -1.71176854E-16
  4.22889105E-14  6.19213157E+00  9.56337343E-15  4.36427187E-15 -4.83020671E-11
  1.22364420E-15  6.14086832E-09  7.55298860E-16  8.58782784E+00 -9.06360859E-11
 -1.85552775E-02  1.43370611E-15  2.71737634E+01  7.00959110E-16 -5.73935026E-08
  1.06354345E+01 -1.95102111E-15 -1.14735023E+01 -3.85439988E-14 -3.09606579E+00
 -9.37187887E-15 -2.01367733E-15  1.37560207E-02 -2.19285129E-15 -3.37407688E+01
 -2.64557136E-16 -4.29391389E+00  1.26937842E-01  9.27763881E-03 -7.39504593E-16
 -1.35868817E+01 -1.04042212E-15 -1.23205048E+01 -5.31771725E+00
HyperPolarizability                        R   N=          10
 -5.60375462E-18  1.25440562E-17 -1.13124432E-14  1.41463245E-13  3.94562060E-02
 -7.81594711E-15 -1.33451757E+02 -1.22250383E-15  1.37099439E-14 -2.00146394E+01
Anisotropic Hyperfine tensors              R   N=          18
  0.00000000E+00  0.00000000E+00  0.00000000E+00  0.00000000E+00  0.00000000E+00
  0.00000000E+00  0.00000000E+00  0.00000000E+00  0.00000000E+00  0.00000000E+00
  0.00000000E+00  0.00000000E+00  0.00000000E+00  0.00000000E+00  0.00000000E+00
  0.00000000E+00  0.00000000E+00  0.00000000E+00
Isotropic Hyperfine splittings             R   N=           3
  0.00000000E+00  0.00000000E+00  0.00000000E+00
QEq coupling tensors                       R   N=          18
 -1.71700421E-02 -7.38747405E-20  2.02520331E-02 -1.78619580E-20 -2.73657728E-02
 -3.08199099E-03  3.58518936E+00  9.78017653E-18 -2.30327959E+00  8.51319890E-18
 -6.93889390E-18 -1.28190978E+00 -1.71700421E-02  4.27855730E-18  2.02520331E-02
  2.76249221E-18  2.73657728E-02 -3.08199099E-03
